LAMMPS (11 Aug 2017)
  using 1 OpenMP thread(s) per MPI task
units           real
dimension       3
processors      * * *
boundary        p p p


atom_style      charge
neighbor        2.0 bin
neigh_modify    delay 0 every 1 check yes
timestep        1.0


read_data       du.dat
  orthogonal box = (0 0 0) to (28.2294 28.2294 28.2294)
  2 by 2 by 2 MPI processor grid
  reading atoms ...
  5720 atoms


include		    pot_bio_glass
#DU pair stylewith pair_coeff	2 2 table   BKS.PO.8.12.new style
# DU with zbl
#NOTE: This script can be modified for different pair styles
# See in.elastic for more info.
# Choose potential
variable        Si equal 1
variable        P equal 2
variable        Ca equal 3
variable        Na equal 4
variable        O equal 5
group		P type ${P}
group		P type 2
104 atoms in group P
group		O type ${O}
group		O type 5
3130 atoms in group O
group		Na type ${Na}
group		Na type 4
1076 atoms in group Na
group		Si type ${Si}
group		Si type 1
922 atoms in group Si
group		Ca type ${Ca}
group		Ca type 3
488 atoms in group Ca
pair_style	hybrid/overlay buck/coul/long 8.0 10.0 table linear 10000 #nb3b/harmonic
pair_coeff      * * buck/coul/long 0.0 1.0 0.0
pair_coeff	1 1 table   BKS.8.10.table.new SiSi #
WARNING: 7997 of 10000 force values in table are inconsistent with -dE/dr.
  Should only be flagged at inflection points (../pair_table.cpp:481)
pair_coeff 	1 2 table   BKS.8.10.table.new PSi #
WARNING: 7997 of 10000 force values in table are inconsistent with -dE/dr.
  Should only be flagged at inflection points (../pair_table.cpp:481)
pair_coeff	1 3 table   BKS.8.10.table.new CaSi #
WARNING: 7997 of 10000 force values in table are inconsistent with -dE/dr.
  Should only be flagged at inflection points (../pair_table.cpp:481)
pair_coeff 	1 4 table   BKS.8.10.table.new NaSi #
WARNING: 7997 of 10000 force values in table are inconsistent with -dE/dr.
  Should only be flagged at inflection points (../pair_table.cpp:481)
pair_coeff	1 5 table   BKS.8.10.table.new OSi#
WARNING: 2 of 10000 force values in table are inconsistent with -dE/dr.
  Should only be flagged at inflection points (../pair_table.cpp:481)
pair_coeff	2 2 table   BKS.8.10.table.new PP#
WARNING: 7997 of 10000 force values in table are inconsistent with -dE/dr.
  Should only be flagged at inflection points (../pair_table.cpp:481)
pair_coeff	2 3 table   BKS.8.10.table.new PCa #
WARNING: 7997 of 10000 force values in table are inconsistent with -dE/dr.
  Should only be flagged at inflection points (../pair_table.cpp:481)
pair_coeff 	2 4 table   BKS.8.10.table.new PNa #
WARNING: 7997 of 10000 force values in table are inconsistent with -dE/dr.
  Should only be flagged at inflection points (../pair_table.cpp:481)
pair_coeff	2 5 table   BKS.8.10.table.new OP #
WARNING: 2 of 10000 force values in table are inconsistent with -dE/dr.
  Should only be flagged at inflection points (../pair_table.cpp:481)
pair_coeff	3 3 table   BKS.8.10.table.new CaCa #
WARNING: 7997 of 10000 force values in table are inconsistent with -dE/dr.
  Should only be flagged at inflection points (../pair_table.cpp:481)
pair_coeff	3 4 table   BKS.8.10.table.new NaCa #
WARNING: 7997 of 10000 force values in table are inconsistent with -dE/dr.
  Should only be flagged at inflection points (../pair_table.cpp:481)
pair_coeff	3 5 table   BKS.8.10.table.new OCa#
WARNING: 2 of 10000 force values in table are inconsistent with -dE/dr.
  Should only be flagged at inflection points (../pair_table.cpp:481)
pair_coeff	4 4 table   BKS.8.10.table.new NaNa#
WARNING: 7987 of 10000 force values in table are inconsistent with -dE/dr.
  Should only be flagged at inflection points (../pair_table.cpp:481)
pair_coeff	4 5 table   BKS.8.10.table.new ONa#
WARNING: 2 of 10000 force values in table are inconsistent with -dE/dr.
  Should only be flagged at inflection points (../pair_table.cpp:481)
pair_coeff	5 5 table   BKS.8.10.table.new OO#
WARNING: 2 of 10000 force values in table are inconsistent with -dE/dr.
  Should only be flagged at inflection points (../pair_table.cpp:481)





kspace_style    pppm 1.0e-5	#ewald  1.0e-6

compute 	1 all coord/atom cutoff 1.8
compute		2 all coord/atom cutoff 1.8
compute		P P reduce ave c_1
compute		O O reduce ave c_2
compute		OO O reduce ave c_1


# outputs
thermo          1000
thermo_style    custom step time etotal temp press density vol c_P c_O c_OO


restart         1000 restart_1.lammps restart_2.lammps



write_data      mini.dat
PPPM initialization ...
WARNING: Using 12-bit tables for long-range coulomb (../kspace.cpp:321)
  G vector (1/distance) = 0.338781
  grid = 40 40 40
  stencil order = 5
  estimated absolute RMS force accuracy = 0.00321771
  estimated relative force accuracy = 9.69003e-06
  using double precision FFTs
  3d grid and FFT values/proc = 19683 8000
WARNING: More than one compute coord/atom (../compute_coord_atom.cpp:151)
WARNING: More than one compute coord/atom (../compute_coord_atom.cpp:151)
Neighbor list info ...
  update every 1 steps, delay 0 steps, check yes
  max neighbors/atom: 2000, page size: 100000
  master list distance cutoff = 12
  ghost atom cutoff = 12
  binsize = 6, bins = 5 5 5
  4 neighbor lists, perpetual/occasional/extra = 2 2 0
  (1) pair buck/coul/long, perpetual
      attributes: half, newton on
      pair build: half/bin/atomonly/newton
      stencil: half/bin/3d/newton
      bin: standard
  (2) pair table, perpetual, copy from (1)
      attributes: half, newton on
      pair build: copy
      stencil: none
      bin: none
  (3) compute coord/atom, occasional
      attributes: full, newton on
      pair build: full/bin/atomonly
      stencil: full/bin/3d
      bin: standard
  (4) compute coord/atom, occasional
      attributes: full, newton on
      pair build: full/bin/atomonly
      stencil: full/bin/3d
      bin: standard
write_restart   mini.rest
PPPM initialization ...
WARNING: Using 12-bit tables for long-range coulomb (../kspace.cpp:321)
  G vector (1/distance) = 0.338781
  grid = 40 40 40
  stencil order = 5
  estimated absolute RMS force accuracy = 0.00321771
  estimated relative force accuracy = 9.69003e-06
  using double precision FFTs
  3d grid and FFT values/proc = 19683 8000
WARNING: More than one compute coord/atom (../compute_coord_atom.cpp:151)
WARNING: More than one compute coord/atom (../compute_coord_atom.cpp:151)




# Heating to 4000K followed by an NVE run
fix             1 all npt temp 4000 4000 100 iso 0 0 100
fix 	        var_t all dt/reset 2 0.1 1.0 0.1  units box
run             60000
PPPM initialization ...
WARNING: Using 12-bit tables for long-range coulomb (../kspace.cpp:321)
  G vector (1/distance) = 0.338781
  grid = 40 40 40
  stencil order = 5
  estimated absolute RMS force accuracy = 0.00321771
  estimated relative force accuracy = 9.69003e-06
  using double precision FFTs
  3d grid and FFT values/proc = 19683 8000
WARNING: More than one compute coord/atom (../compute_coord_atom.cpp:151)
WARNING: More than one compute coord/atom (../compute_coord_atom.cpp:151)
Per MPI rank memory allocation (min/avg/max) = 10.57 | 11.34 | 13.58 Mbytes
Step Time TotEng Temp Press Density Volume c_P c_O c_OO 
       0            0    1234174.5            0     13748534    9.1158462    22495.906    7.4615385    6.1319489    6.1319489 
    1000    970.74531   -1459953.2     4036.573    2334.6183    1.9527833    105013.81    3.9230769    1.0763578    1.0763578 
    2000    1970.7453   -1465465.8      3988.44   -1583.2127    1.8515301    110756.62    3.9615385    1.0833866    1.0833866 
    3000    2970.7453   -1467155.2    3921.9664    -717.5188    1.8661048    109891.59    3.8942308    1.0801917    1.0801917 
    4000    3970.7453   -1463591.8    3972.3164    -3499.163    1.8645669    109982.22        3.875     1.071885     1.071885 
    5000    4970.7453   -1465067.5    4021.0578    615.82743    1.8523064    110710.21    3.9615385     1.086901     1.086901 
    6000    5970.7453   -1467112.4    3978.0827    1083.2375    1.8528768    110676.12    3.9134615    1.0897764    1.0897764 
    7000    6970.7453   -1465170.1    4130.3648   -1383.9715    1.7877271    114709.46    3.9230769    1.0795527    1.0795527 
    8000    7970.7453   -1466537.7    4030.5667    1867.0485    1.8496377    110869.94    3.9230769    1.0904153    1.0904153 
    9000    8970.7453   -1465148.2     4057.719    171.29866    1.8574995    110400.68    3.9326923    1.0763578    1.0763578 
   10000    9970.7453   -1467055.8    3965.9619    780.25392    1.8343749    111792.43    3.9134615    1.0785942    1.0785942 
   11000    10970.745     -1465650    4047.0256    2278.6127    1.8564863    110460.94    3.8942308    1.0747604    1.0747604 
   12000    11970.745   -1468223.8    3976.0853   -160.77598     1.819567    112702.21    3.9423077    1.0920128    1.0920128 
   13000    12970.745   -1463834.4    4075.9909    1609.3978    1.8638598    110023.95    3.9423077    1.0795527    1.0795527 
   14000    13970.745   -1469086.9    3934.0247   -3333.3229    1.8548412    110558.91    3.9230769    1.0722045    1.0722045 
   15000    14970.745   -1465652.7    4022.1084    -2163.071    1.8547727    110562.99    3.9230769    1.0747604    1.0747604 
   16000    15970.745   -1467415.7    3973.4039    1283.3516    1.8678519     109788.8    3.9326923    1.0795527    1.0795527 
   17000    16970.745   -1465077.9    4017.4779   -5349.0893    1.7935443    114337.42    3.9134615    1.0747604    1.0747604 
   18000    17970.745   -1465674.7    3978.9807    1265.9274    1.8210231    112612.09    3.9615385    1.0773163    1.0773163 
   19000    18970.745   -1462187.7    4171.3154   -716.23197    1.8459008    111094.39    3.9519231    1.0664537    1.0664537 
   20000    19970.745   -1466681.5    3995.6714   -566.83401    1.8528915    110675.24    3.9230769    1.0837061    1.0837061 
   21000    20970.745   -1464986.2    4032.4324    3753.3813    1.8305246    112027.57    3.9519231    1.0821086    1.0821086 
   22000    21970.745   -1465831.2    4063.1862    3974.6812     1.794357    114285.63    3.9423077    1.0926518    1.0926518 
   23000    22970.745   -1464609.6    3987.5676   -1410.1795    1.8268355     112253.8    3.9230769    1.0789137    1.0789137 
   24000    23970.745   -1464204.4    4082.6584    416.29631    1.8397001    111468.83    3.9423077    1.0776358    1.0776358 
   25000    24970.745   -1466323.1    4005.1297   -2996.3702    1.8206496    112635.19    3.9038462    1.0757188    1.0757188 
   26000    25970.745   -1467787.7    3951.2596    502.12639    1.8731463    109478.48    3.9423077    1.0830671    1.0830671 
   27000    26970.745   -1464529.9    4048.2198    658.10678    1.8697144    109679.43    3.9807692    1.0690096    1.0690096 
   28000    27970.745   -1465934.9     3980.292    1643.9418     1.840977    111391.52    3.9326923    1.0805112    1.0805112 
   29000    28970.745   -1464424.9    4037.1896    223.53078    1.8027361    113754.43    3.9230769    1.0830671    1.0830671 
   30000    29970.745   -1468220.9    3958.0962    -581.2692    1.8047804    113625.58    3.9711538    1.0757188    1.0757188 
   31000    30970.745   -1464805.9    4047.8875   -2442.3559    1.8052454    113596.31    3.9807692    1.0808307    1.0808307 
   32000    31970.745   -1466917.4    3983.3551    1377.2719    1.8177974    112811.92    3.9615385    1.0821086    1.0821086 
   33000    32970.745   -1466157.6     4012.416   -470.08206    1.8734008    109463.61    3.9711538    1.0814696    1.0814696 
   34000    33970.745   -1466015.5    3968.2726    1783.5323     1.848813    110919.39    3.9134615    1.0865815    1.0865815 
   35000    34970.745   -1464969.2    3996.0218   -1396.7022    1.8052666    113594.98    3.9038462    1.0750799    1.0750799 
   36000    35970.745   -1467349.1    3949.7574   -2900.9495    1.8257604     112319.9    3.9615385    1.0805112    1.0805112 
   37000    36970.745   -1465873.7    4033.3013   -132.78676    1.8364408    111666.66    3.9711538    1.0789137    1.0789137 
   38000    37970.745   -1467817.3    4034.7685   -383.20098    1.8365656    111659.08    3.9519231    1.0958466    1.0958466 
   39000    38970.745   -1467808.4    3995.2259   -493.78556    1.8204038     112650.4    3.9326923    1.0878594    1.0878594 
   40000    39970.745     -1465800    3981.8205    4236.8932    1.8106826     113255.2    3.9326923    1.0891374    1.0891374 
   41000    40970.745   -1467133.1    3961.9161   -1379.0964     1.854044    110606.44    3.9711538    1.0865815    1.0865815 
   42000    41970.745   -1467765.6    4026.6716    1968.9366    1.8282733    112165.51    3.9134615    1.0859425    1.0859425 
   43000    42970.745     -1465774    4060.6116   -1626.9398    1.8378871    111578.79    3.9519231    1.0753994    1.0753994 
   44000    43970.745   -1468112.4    3991.4339   -6324.3001    1.8386334     111533.5    3.9134615    1.0693291    1.0693291 
   45000    44970.745   -1465551.2    4048.9529    -1663.005    1.8390195    111510.09    3.9326923    1.0782748    1.0782748 
   46000    45970.745   -1465818.4    3991.3329    1861.9515    1.8585468    110338.47    3.9230769    1.0811502    1.0811502 
   47000    46970.745   -1464158.7    4081.3611    707.84093    1.8598496    110261.19    3.9519231    1.0827476    1.0827476 
   48000    47970.745   -1465522.6     3975.181   -875.69239     1.815697    112942.42    3.9519231    1.0763578    1.0763578 
   49000    48970.745   -1466203.5    4019.2135   -849.52492    1.8293703    112098.25    3.9326923    1.0830671    1.0830671 
   50000    49970.745   -1466108.6    4004.3421    419.38413    1.8339269    111819.73    3.9711538    1.0824281    1.0824281 
   51000    50970.745   -1465405.8    4053.3042    289.93558    1.8380214    111570.63    3.9423077    1.0734824    1.0734824 
   52000    51970.745   -1467765.8    4022.5037    494.86577    1.8263961     112280.8    3.9615385    1.0859425    1.0859425 
   53000    52970.745   -1465379.1    4033.5876    1686.6089    1.8547329    110565.36    3.9519231    1.0792332    1.0792332 
   54000    53970.745   -1465896.4    4014.7113    2409.3991    1.8574421     110404.1    3.9711538    1.0904153    1.0904153 
   55000    54970.745   -1466226.7    3970.7405   -1338.0416    1.8303756    112036.68    3.9615385     1.071885     1.071885 
   56000    55970.745   -1468886.8    3945.1257    393.18792    1.8176275    112822.47    3.9615385    1.0897764    1.0897764 
   57000    56970.745   -1464727.8    4014.7337   -1979.2445    1.8085113    113391.17    3.9711538    1.0859425    1.0859425 
   58000    57970.745   -1467542.6    3920.7131   -1581.6676    1.8313616    111976.37    3.9134615    1.0744409    1.0744409 
   59000    58970.745   -1465028.8    4030.3941    587.28196    1.8182073    112786.49    3.9615385    1.0853035    1.0853035 
   60000    59970.745   -1466292.7    4055.1684    163.31361    1.8182913    112781.28    3.9423077    1.0846645    1.0846645 
Loop time of 964.322 on 8 procs for 60000 steps with 5720 atoms

Performance: 5.376 ns/day, 4.464 hours/ns, 62.220 timesteps/s
99.7% CPU use with 8 MPI tasks x 1 OpenMP threads

MPI task timing breakdown:
Section |  min time  |  avg time  |  max time  |%varavg| %total
---------------------------------------------------------------
Pair    | 514.98     | 551.07     | 579.86     |  86.0 | 57.15
Kspace  | 217.01     | 246.51     | 283.46     | 132.1 | 25.56
Neigh   | 13.835     | 14.669     | 15.313     |  14.0 |  1.52
Comm    | 9.5809     | 9.6802     | 9.7734     |   1.8 |  1.00
Output  | 1.4929     | 1.493      | 1.4937     |   0.0 |  0.15
Modify  | 130.45     | 135.51     | 138.35     |  19.0 | 14.05
Other   |            | 5.392      |            |       |  0.56

Nlocal:    715 ave 744 max 694 min
Histogram: 1 2 0 0 2 1 1 0 0 1
Nghost:    4948.75 ave 4969 max 4922 min
Histogram: 1 0 1 0 1 1 1 0 2 1
Neighs:    131168 ave 141403 max 121905 min
Histogram: 1 0 2 1 0 1 2 0 0 1
FullNghs:  262337 ave 279960 max 245462 min
Histogram: 1 0 2 0 1 1 1 1 0 1

Total # of neighbors = 2098696
Ave neighs/atom = 366.905
Neighbor list builds = 3602
Dangerous builds = 0
unfix           1
fix             1 all nve
run             60000
PPPM initialization ...
WARNING: Using 12-bit tables for long-range coulomb (../kspace.cpp:321)
  G vector (1/distance) = 0.322894
  grid = 54 54 54
  stencil order = 5
  estimated absolute RMS force accuracy = 0.00410732
  estimated relative force accuracy = 1.23691e-05
  using double precision FFTs
  3d grid and FFT values/proc = 39304 20412
WARNING: More than one compute coord/atom (../compute_coord_atom.cpp:151)
WARNING: More than one compute coord/atom (../compute_coord_atom.cpp:151)
Per MPI rank memory allocation (min/avg/max) = 21.05 | 23.21 | 27.79 Mbytes
Step Time TotEng Temp Press Density Volume c_P c_O c_OO 
   60000    59970.745   -1466292.4    4055.1684    162.40083    1.8182913    112781.28    3.9423077    1.0846645    1.0846645 
   61000    60970.745   -1466359.8    3997.3051    863.75933    1.8182913    112781.28    3.9519231    1.0821086    1.0821086 
   62000    61970.745   -1466320.9    3954.9774    -277.4057    1.8182913    112781.28    3.9326923    1.0779553    1.0779553 
   63000    62970.745   -1465359.7    4026.1027   -488.89868    1.8182913    112781.28    3.9423077    1.0859425    1.0859425 
   64000    63970.745   -1466393.8    4048.9711    2487.6395    1.8182913    112781.28    3.9615385    1.0920128    1.0920128 
   65000    64970.745   -1466750.9    4010.4089    1835.3325    1.8182913    112781.28    3.9711538     1.084984     1.084984 
   66000    65970.745   -1466215.3    3973.5668     1680.015    1.8182913    112781.28    3.9519231    1.0811502    1.0811502 
   67000    66970.745   -1465720.9    3993.8178    2502.5842    1.8182913    112781.28    3.9615385    1.0900958    1.0900958 
   68000    67970.745   -1466647.9     4040.104   -1338.8743    1.8182913    112781.28    3.8942308    1.0920128    1.0920128 
   69000    68970.745   -1466321.2    3983.1952    695.77706    1.8182913    112781.28    3.9711538    1.0837061    1.0837061 
   70000    69970.745     -1465698    4015.7547    1500.1977    1.8182913    112781.28    3.9230769    1.0798722    1.0798722 
   71000    70970.745   -1466109.1    4022.2812    375.53434    1.8182913    112781.28    3.9423077     1.086901     1.086901 
   72000    71970.745   -1466766.3    3971.0423   -5985.8956    1.8182913    112781.28    3.9519231    1.0629393    1.0629393 
   73000    72970.745   -1466343.3    4018.4166    1778.5995    1.8182913    112781.28    3.9134615    1.0805112    1.0805112 
   74000    73970.745   -1466504.4    4046.5202    2506.4773    1.8182913    112781.28    3.9423077     1.086901     1.086901 
   75000    74970.745   -1466449.2    3975.6707    168.17054    1.8182913    112781.28    3.9615385    1.0830671    1.0830671 
   76000    75970.745   -1467051.1    3978.4984   -562.86692    1.8182913    112781.28    3.9423077    1.0846645    1.0846645 
   77000    76970.745   -1466863.1    3974.8525   -3396.2505    1.8182913    112781.28    3.9230769    1.0808307    1.0808307 
   78000    77970.745   -1466102.4    4025.8058    3611.6684    1.8182913    112781.28    3.9807692    1.0833866    1.0833866 
   79000    78970.745   -1465887.7    3998.4168   -1372.8961    1.8182913    112781.28    3.9903846    1.0811502    1.0811502 
   80000    79970.745   -1466222.7    4009.5919   -3125.4887    1.8182913    112781.28    3.9615385    1.0795527    1.0795527 
   81000    80970.745   -1467031.1     4042.725   -2354.3699    1.8182913    112781.28    3.9519231    1.0750799    1.0750799 
   82000    81970.745   -1466696.2    3950.1193    712.63403    1.8182913    112781.28    3.9326923    1.0702875    1.0702875 
   83000    82970.745   -1465947.2    3945.4241    1095.3605    1.8182913    112781.28    3.9903846     1.084984     1.084984 
   84000    83970.745   -1465895.6    4025.2026    2365.9002    1.8182913    112781.28    3.9423077     1.084984     1.084984 
   85000    84970.745   -1466296.6    4074.8946   -952.26775    1.8182913    112781.28    3.9519231    1.0833866    1.0833866 
   86000    85970.745   -1467354.9    4029.9483   -1875.9073    1.8182913    112781.28    3.9423077    1.0833866    1.0833866 
   87000    86970.745   -1466024.4    3980.8633   -841.69028    1.8182913    112781.28    3.9423077    1.0795527    1.0795527 
   88000    87970.745   -1465855.6    3989.3585   -861.50653    1.8182913    112781.28    3.9711538    1.0904153    1.0904153 
   89000    88970.745   -1466041.8    4021.9486    1825.8704    1.8182913    112781.28    3.9807692    1.0904153    1.0904153 
   90000    89970.745     -1466754    3963.1962    1429.9155    1.8182913    112781.28    3.9230769     1.084345     1.084345 
   91000    90970.745   -1466339.5    3925.0592   -2017.0774    1.8182913    112781.28    3.9711538    1.0683706    1.0683706 
   92000    91970.745   -1466017.7    3970.9955    1418.3217    1.8182913    112781.28    3.9615385    1.0853035    1.0853035 
   93000    92970.745   -1466153.2    3982.4346   -270.17887    1.8182913    112781.28    3.9230769     1.085623     1.085623 
   94000    93970.745   -1466470.2    3995.5017    1865.2436    1.8182913    112781.28    3.9230769    1.0811502    1.0811502 
   95000    94970.745   -1465939.8    3982.7264    283.42705    1.8182913    112781.28    3.9326923    1.0830671    1.0830671 
   96000    95970.745   -1466453.6    4008.0556   -1147.6419    1.8182913    112781.28    3.9423077    1.0814696    1.0814696 
   97000    96970.745     -1467010    4058.5621   -2968.1044    1.8182913    112781.28    3.9711538    1.0741214    1.0741214 
   98000    97970.745   -1466958.8    3990.1898    1014.4961    1.8182913    112781.28            4    1.0875399    1.0875399 
   99000    98970.745   -1466472.5    3990.1789     1428.909    1.8182913    112781.28    3.9519231    1.0750799    1.0750799 
  100000    99970.745   -1467051.8    4024.6946    248.27249    1.8182913    112781.28        3.875    1.0872204    1.0872204 
  101000    100970.75     -1464817    3966.1211    2450.3407    1.8182913    112781.28    3.9615385     1.085623     1.085623 
  102000    101970.75   -1466737.4    3986.4834    408.71028    1.8182913    112781.28    3.9903846     1.084345     1.084345 
  103000    102970.75   -1466705.7    4036.8355   -98.606171    1.8182913    112781.28    3.9423077    1.0789137    1.0789137 
  104000    103970.75   -1466213.6    3987.9047     1336.719    1.8182913    112781.28    3.9807692    1.0830671    1.0830671 
  105000    104970.75   -1466532.9    4089.2359   -1299.1233    1.8182913    112781.28    3.9423077    1.0808307    1.0808307 
  106000    105970.75   -1466823.4    4033.1578     546.0832    1.8182913    112781.28    3.9807692    1.0878594    1.0878594 
  107000    106970.75   -1466045.6    3977.4608    2715.1604    1.8182913    112781.28    3.9230769    1.0904153    1.0904153 
  108000    107970.75   -1465806.4    3981.3432    1442.3532    1.8182913    112781.28    3.9519231     1.071246     1.071246 
  109000    108970.75   -1464803.6    4034.2958    2283.9479    1.8182913    112781.28    3.9807692    1.0939297    1.0939297 
  110000    109970.75   -1466557.1    4007.0208   -2252.5835    1.8182913    112781.28    3.9423077    1.0789137    1.0789137 
  111000    110970.75   -1465311.1    3940.9395   -347.28813    1.8182913    112781.28    3.9423077    1.0753994    1.0753994 
  112000    111970.75   -1466332.4    3996.8926    403.20969    1.8182913    112781.28    3.9326923    1.0750799    1.0750799 
  113000    112970.75   -1465426.1    4010.3703   -233.76807    1.8182913    112781.28    3.9326923    1.0900958    1.0900958 
  114000    113970.75   -1466595.3    3975.3691    954.80205    1.8182913    112781.28    3.9519231    1.0884984    1.0884984 
  115000    114970.75   -1466058.9    4034.6755    961.72151    1.8182913    112781.28    3.9423077    1.0824281    1.0824281 
  116000    115970.75   -1466879.3    4016.2552   -1330.8953    1.8182913    112781.28    3.9326923    1.0830671    1.0830671 
  117000    116970.75   -1465681.7    4002.5534   -683.14263    1.8182913    112781.28    3.9230769     1.086262     1.086262 
  118000    117970.75   -1466140.2     4028.747    510.91428    1.8182913    112781.28    3.9711538    1.0923323    1.0923323 
  119000    118970.75   -1465598.3    3991.7821       56.544    1.8182913    112781.28    3.9134615    1.0789137    1.0789137 
  120000    119970.75     -1466551    4009.6976    1470.1355    1.8182913    112781.28    3.9615385     1.086262     1.086262 
Loop time of 1095.03 on 8 procs for 60000 steps with 5720 atoms

Performance: 4.734 ns/day, 5.070 hours/ns, 54.793 timesteps/s
99.9% CPU use with 8 MPI tasks x 1 OpenMP threads

MPI task timing breakdown:
Section |  min time  |  avg time  |  max time  |%varavg| %total
---------------------------------------------------------------
Pair    | 521.24     | 536.29     | 550.33     |  37.8 | 48.97
Kspace  | 515.46     | 529.11     | 544.36     |  38.1 | 48.32
Neigh   | 12.627     | 12.904     | 13.091     |   4.2 |  1.18
Comm    | 10.819     | 11.372     | 11.682     |   8.9 |  1.04
Output  | 1.617      | 1.6171     | 1.6179     |   0.0 |  0.15
Modify  | 2.3427     | 2.3628     | 2.3815     |   0.7 |  0.22
Other   |            | 1.371      |            |       |  0.13

Nlocal:    715 ave 734 max 668 min
Histogram: 1 0 0 1 0 0 1 0 1 4
Nghost:    4956.5 ave 4999 max 4939 min
Histogram: 4 1 0 1 0 0 1 0 0 1
Neighs:    131266 ave 138743 max 119110 min
Histogram: 1 0 1 0 1 1 0 0 2 2
FullNghs:  262533 ave 274037 max 237264 min
Histogram: 1 0 0 1 0 1 1 0 0 4

Total # of neighbors = 2100264
Ave neighs/atom = 367.179
Neighbor list builds = 3411
Dangerous builds = 0
uunfix           1
unfix 	     var_t

write_data      mini.dat
PPPM initialization ...
WARNING: Using 12-bit tables for long-range coulomb (../kspace.cpp:321)
  G vector (1/distance) = 0.322894
  grid = 54 54 54
  stencil order = 5
  estimated absolute RMS force accuracy = 0.00410732
  estimated relative force accuracy = 1.23691e-05
  using double precision FFTs
  3d grid and FFT values/proc = 39304 20412
WARNING: More than one compute coord/atom (../compute_coord_atom.cpp:151)
WARNING: More than one compute coord/atom (../compute_coord_atom.cpp:151)
write_restart   mini.rest
PPPM initialization ...
WARNING: Using 12-bit tables for long-range coulomb (../kspace.cpp:321)
  G vector (1/distance) = 0.322894
  grid = 54 54 54
  stencil order = 5
  estimated absolute RMS force accuracy = 0.00410732
  estimated relative force accuracy = 1.23691e-05
  using double precision FFTs
  3d grid and FFT values/proc = 39304 20412
WARNING: More than one compute coord/atom (../compute_coord_atom.cpp:151)
WARNING: More than one compute coord/atom (../compute_coord_atom.cpp:151)

# cooling @ 5K/ps
fix             1 all npt temp 4000 300 100 iso 0 0 1000
run             740000  # 3700000/5
PPPM initialization ...
WARNING: Using 12-bit tables for long-range coulomb (../kspace.cpp:321)
  G vector (1/distance) = 0.322894
  grid = 54 54 54
  stencil order = 5
  estimated absolute RMS force accuracy = 0.00410732
  estimated relative force accuracy = 1.23691e-05
  using double precision FFTs
  3d grid and FFT values/proc = 39304 20412
WARNING: More than one compute coord/atom (../compute_coord_atom.cpp:151)
WARNING: More than one compute coord/atom (../compute_coord_atom.cpp:151)
Per MPI rank memory allocation (min/avg/max) = 21.05 | 23.21 | 27.79 Mbytes
Step Time TotEng Temp Press Density Volume c_P c_O c_OO 
  120000    119970.75     -1466551    4009.6976    1470.1355    1.8182913    112781.28    3.9615385     1.086262     1.086262 
  121000    120970.75   -1465178.3    4039.8877    2473.6305    1.8357295    111709.93    3.9230769    1.0907348    1.0907348 
  122000    121970.75   -1466774.4    3995.5106   -1581.9844    1.8210169    112612.48    3.9230769    1.0792332    1.0792332 
  123000    122970.75     -1467029    3940.6157    1424.6454    1.8629565     110077.3    3.9230769    1.0763578    1.0763578 
  124000    123970.75   -1467032.1    4024.8163    1074.7654    1.8479469    110971.38    3.9615385    1.0840256    1.0840256 
  125000    124970.75   -1469516.2    3908.5182   -920.10059    1.8304538     112031.9    3.9134615     1.085623     1.085623 
  126000    125970.75   -1468649.1    3948.1934     2046.557    1.8728521    109495.68    3.9519231     1.084345     1.084345 
  127000    126970.75     -1468333    4025.2077   -1843.1572    1.8631235    110067.43    3.9615385    1.0821086    1.0821086 
  128000    127970.75   -1467701.9     3956.996   -1230.0853    1.8397221     111467.5    3.9038462    1.0853035    1.0853035 
  129000    128970.75   -1467468.2    4032.2447    1833.7985    1.8588814    110318.62    3.9807692    1.0881789    1.0881789 
  130000    129970.75   -1470972.2    3904.0453    446.30835    1.8509184    110793.23    3.9423077    1.0891374    1.0891374 
  131000    130970.75   -1467138.7    3964.0407   -1870.2922    1.8664162    109873.25    3.9615385    1.0766773    1.0766773 
  132000    131970.75   -1469317.9     3952.115    -3729.929    1.8305513    112025.93    3.9615385    1.0923323    1.0923323 
  133000    132970.75   -1468331.6    4044.1716    166.79511    1.8499932    110848.63    3.9807692    1.0884984    1.0884984 
  134000    133970.75   -1468139.1    3928.2725    1109.2965    1.8539627    110611.29    3.9615385    1.0830671    1.0830671 
  135000    134970.75   -1468987.1    3891.8921   -4098.0258    1.8297668    112073.96    3.9423077    1.0878594    1.0878594 
  136000    135970.75   -1469527.2    3898.3027   -1342.2365    1.8539693     110610.9    3.9615385     1.086262     1.086262 
  137000    136970.75   -1470527.2     3868.658   -47.143448    1.8692414    109707.19    3.9519231    1.1009585    1.1009585 
  138000    137970.75   -1470333.6    3856.1219   -1503.2443    1.8786279    109159.04    3.9423077     1.098722     1.098722 
  139000    138970.75   -1471850.1    3871.2331    632.39988    1.8809971    109021.55    3.9615385    1.0936102    1.0936102 
  140000    139970.75   -1470898.9     3870.713    992.93801    1.9044051    107681.51    3.9711538    1.0907348    1.0907348 
  141000    140970.75   -1466700.7    3968.0786   -577.23005    1.8552785    110532.85    3.9711538    1.0741214    1.0741214 
  142000    141970.75     -1471540    3918.1938   -3411.9732    1.8493284    110888.48    3.9423077    1.0881789    1.0881789 
  143000    142970.75   -1470781.4    3903.9381   -1117.6564    1.8896754    108520.87    3.9423077    1.0932907    1.0932907 
  144000    143970.75   -1469783.4     3946.095   -3498.3228    1.8944386    108248.01    3.9326923    1.0805112    1.0805112 
  145000    144970.75     -1470505    3878.7099    815.66856    1.8835693    108872.67    3.9519231    1.1019169    1.1019169 
  146000    145970.75   -1469775.3    3949.8276   -2123.1118    1.9021046    107811.74    3.9615385    1.0897764    1.0897764 
  147000    146970.75   -1470985.1    3864.0958   -4218.1023    1.8674996    109809.51    3.9519231    1.0881789    1.0881789 
  148000    147970.75   -1473936.6    3812.7497   -559.49321    1.8749373    109373.91    3.9615385    1.0974441    1.0974441 
  149000    148970.75   -1470692.3    3895.0398   -3053.8502    1.9019727    107819.22    3.9038462    1.0932907    1.0932907 
  150000    149970.75   -1472877.5    3820.0125    2130.1382    1.8978894    108051.19    3.9519231    1.0907348    1.0907348 
  151000    150970.75   -1472481.2    3883.3263    1936.2546    1.8955661    108183.63    3.9326923    1.0920128    1.0920128 
  152000    151970.75   -1473095.9    3826.0043   -493.46942    1.9377953    105826.05    3.9519231    1.0859425    1.0859425 
  153000    152970.75   -1472780.9    3862.2672    1209.1186    1.9025554     107786.2    3.9903846    1.0900958    1.0900958 
  154000    153970.75   -1471112.4    3921.6981    2724.0121    1.9079138    107483.48    3.9519231     1.101278     1.101278 
  155000    154970.75   -1473520.1    3818.8647    2013.4856    1.9174844    106947.01    3.9615385    1.1022364    1.1022364 
  156000    155970.75   -1473719.5    3790.4773    269.40108    1.9124461    107228.75    3.9326923    1.0996805    1.0996805 
  157000    156970.75     -1473588    3867.0676    2566.4167    1.9358341    105933.26    3.9519231    1.1022364    1.1022364 
  158000    157970.75   -1472375.6    3768.1194    2177.3971    1.9083745    107457.54    3.9423077    1.0984026    1.0984026 
  159000    158970.75   -1473978.6    3804.7883    3239.7946    1.9408916    105657.22    3.9807692    1.1041534    1.1041534 
  160000    159970.75   -1472970.2    3843.1598    2263.8072    1.9472251    105313.56    3.9519231     1.101278     1.101278 
  161000    160970.75   -1473250.7    3858.4013     3616.999    1.9253859    106508.11    3.9326923    1.1121406    1.1121406 
  162000    161970.75   -1475831.5    3767.7036   -703.68741    1.9138484    107150.19    3.9711538    1.1153355    1.1153355 
  163000    162970.75   -1474586.1    3739.5781    1427.6653    1.9215013    106723.43    3.9519231    1.1076677    1.1076677 
  164000    163970.75   -1475504.8    3819.4491   -2448.2702     1.934042    106031.42    3.9423077    1.1083067    1.1083067 
  165000    164970.75   -1475618.7    3735.5882   -3135.1845    1.9373434    105850.73    3.9711538    1.0958466    1.0958466 
  166000    165970.75   -1478682.5    3706.0572   -4401.0836    1.9160352    107027.89    3.9519231    1.1028754    1.1028754 
  167000    166970.75   -1475770.6    3747.8126   -2674.7183    1.9155297    107056.14    3.9519231     1.101278     1.101278 
  168000    167970.75   -1475321.6    3774.8046    2322.5525    1.9370123    105868.83    3.9326923    1.0974441    1.0974441 
  169000    168970.75   -1476697.5    3749.4629   -1914.9668    1.9316497    106162.73    3.9807692    1.1067093    1.1067093 
  170000    169970.75   -1477407.4    3730.2358   -1316.0521    1.8990348    107986.02    3.9615385    1.1022364    1.1022364 
  171000    170970.75   -1478158.2    3729.2658   -448.53091     1.908522    107449.23    3.9326923    1.1015974    1.1015974 
  172000    171970.75   -1478435.5    3746.8126     -963.516     1.932273    106128.49    3.9615385    1.1079872    1.1079872 
  173000    172970.75   -1477609.3    3735.6224    690.15073    1.9398974    105711.37    3.9326923    1.1070288    1.1070288 
  174000    173970.75   -1477758.1     3697.671     594.8455     1.957888    104740.02    3.9615385     1.101278     1.101278 
  175000    174970.75   -1479261.9     3677.069   -974.13103      1.92369    106602.01    3.9615385    1.1115016    1.1115016 
  176000    175970.75   -1478696.9    3767.2121    86.839536    1.9046563    107667.31    3.9615385    1.1105431    1.1105431 
  177000    176970.75   -1478187.9    3673.9983   -1667.1271    1.9264834    106447.43    3.9711538    1.1057508    1.1057508 
  178000    177970.75   -1478838.7    3721.9311    2019.7997    1.9339147     106038.4    3.9807692    1.1166134    1.1166134 
  179000    178970.75   -1479248.2    3629.5709    1365.2156    1.9481947    105261.15    3.9711538    1.1060703    1.1060703 
  180000    179970.75   -1477713.3     3684.407    1034.3373    1.9366514    105888.55    3.9807692    1.1095847    1.1095847 
  181000    180970.75   -1479147.7     3689.569    -1439.733    1.9286766    106326.39    3.9711538    1.1153355    1.1153355 
  182000    181970.75   -1479164.4    3706.3062     1405.397     1.955103    104889.22    3.9711538    1.1188498    1.1188498 
  183000    182970.75     -1478931    3720.0136    235.22873    1.9397418    105719.85    3.9711538    1.1092652    1.1092652 
  184000    183970.75   -1479639.8    3665.0141    151.73971    2.0074307    102155.07    3.9711538    1.1217252    1.1217252 
  185000    184970.75     -1479236    3719.5679    2011.0514    1.9707967    104053.97    3.9326923    1.1099042    1.1099042 
  186000    185970.75   -1478203.8    3598.0237    -548.3758    1.9456776    105397.33    3.9615385     1.100639     1.100639 
  187000    186970.75   -1479882.8    3637.3452    2264.5804    1.9509282    105113.67    3.9615385     1.113738     1.113738 
  188000    187970.75     -1480893    3590.8764    2838.9436    1.9669995    104254.84    3.9711538     1.115655     1.115655 
  189000    188970.75   -1479860.9    3636.6263    568.89763    1.9797964    103580.96    3.9615385    1.1201278    1.1201278 
  190000    189970.75   -1480721.9    3669.0132    -693.5961    1.9607521    104587.02            4    1.1127796    1.1127796 
  191000    190970.75   -1479502.1    3698.0888   -527.83133    1.9707571    104056.06    3.9519231    1.1127796    1.1127796 
  192000    191970.75   -1480140.5    3626.7893    1516.1762    1.9924259    102924.39    3.9807692    1.1146965    1.1146965 
  193000    192970.75   -1479774.6    3709.8213   -143.40739      1.99382    102852.42    3.9711538    1.1140575    1.1140575 
  194000    193970.75   -1481306.3    3615.1301   -1096.5668    1.9966103    102708.69    3.9615385    1.1095847    1.1095847 
  195000    194970.75   -1483939.8    3505.4455    1913.8891    1.9915154    102971.44    3.9326923    1.1204473    1.1204473 
  196000    195970.75     -1480967    3675.3397   -3010.8176    1.9832284    103401.72    3.9615385     1.099361     1.099361 
  197000    196970.75   -1482175.2    3671.6488    1511.6038    1.9939778    102844.28    3.9615385     1.113738     1.113738 
  198000    197970.75   -1482866.6    3547.4867   -548.31258    1.9523312    105038.13    3.9807692     1.115655     1.115655 
  199000    198970.75   -1481439.9    3607.4212     387.1115    1.9929854     102895.5    3.9807692    1.1182109    1.1182109 
  200000    199970.75   -1483965.5    3545.7575    1290.1287    1.9584448    104710.24            4    1.1182109    1.1182109 
  201000    200970.75   -1481498.4    3565.5988    613.57473    1.9810835    103513.67    3.9519231    1.1210863    1.1210863 
  202000    201970.75   -1484340.4    3522.4118   -3129.1091     1.995931    102743.64    3.9807692    1.1223642    1.1223642 
  203000    202970.75   -1481446.7     3612.575    3579.1635    2.0053574    102260.68    3.9615385    1.1166134    1.1166134 
  204000    203970.75   -1483349.4    3639.9471    1476.3442    2.0114019    101953.38    3.9519231    1.1252396    1.1252396 
  205000    204970.75   -1482491.4    3572.3685   -274.46556    1.9811402     103510.7    3.9519231    1.1214058    1.1214058 
  206000    205970.75   -1482848.2    3559.9423   -2223.8473    2.0140617    101818.73    3.9326923     1.115655     1.115655 
  207000    206970.75   -1482765.6    3542.0765    326.15087     1.953344    104983.67    3.9519231    1.1178914    1.1178914 
  208000    207970.75   -1485674.4    3473.9948    1634.0947     1.999214    102574.92    3.9807692    1.1198083    1.1198083 
  209000    208970.75   -1486045.4    3566.6533    1141.3803    2.0216551     101436.3    3.9519231    1.1239617    1.1239617 
  210000    209970.75   -1484595.8    3557.5362    1235.7489    2.0157997    101730.95    3.9807692    1.1338658    1.1338658 
  211000    210970.75   -1484730.2    3601.6919    3005.1248    1.9992449    102573.34    3.9807692    1.1284345    1.1284345 
  212000    211970.75   -1484907.5    3582.2138    389.67154    2.0265801    101189.79    3.9807692    1.1182109    1.1182109 
  213000    212970.75   -1488513.1    3507.7548    2160.7858    2.0231053    101363.59    3.9423077    1.1329073    1.1329073 
  214000    213970.75   -1485187.8    3512.2515    -1990.071     1.982243    103453.12    3.9807692     1.115655     1.115655 
  215000    214970.75   -1484656.8    3576.8997    134.02771    1.9919096    102951.06    3.9807692     1.115016     1.115016 
  216000    215970.75   -1486583.1    3516.5957    -768.5748    2.0522195    99925.575    3.9711538    1.1265176    1.1265176 
  217000    216970.75   -1484636.3    3478.9246   -1559.2472    2.0032565    102367.93    3.9711538    1.1255591    1.1255591 
  218000    217970.75   -1484925.3    3524.2326    4156.7667    2.0153135    101755.49    3.9615385    1.1316294    1.1316294 
  219000    218970.75   -1485453.5    3522.3745   -1789.2977    2.0219795    101420.03    3.9807692    1.1249201    1.1249201 
  220000    219970.75   -1488497.3    3448.4678   -2626.5975    1.9966123    102708.58    3.9423077    1.1233227    1.1233227 
  221000    220970.75   -1487366.5    3466.3305   -5063.2623    1.9974395    102666.05    3.9519231    1.1166134    1.1166134 
  222000    221970.75   -1486549.3    3518.1451    621.31082    2.0541467    99831.827    3.9711538    1.1367412    1.1367412 
  223000    222970.75   -1488474.9    3465.2132   -4110.7045    2.0328683    100876.78    3.9615385    1.1178914    1.1178914 
  224000    223970.75   -1488346.8    3457.5554    1450.3424    2.0433738    100358.15    3.9711538    1.1364217    1.1364217 
  225000    224970.75   -1487173.3    3460.4842     892.5549      2.02239    101399.44    3.9807692    1.1249201    1.1249201 
  226000    225970.75   -1488693.1    3423.2833    3248.6551     2.015686    101736.69    3.9519231    1.1345048    1.1345048 
  227000    226970.75   -1488559.8    3445.0687     1380.672    2.0508652    99991.562    3.9903846     1.141853     1.141853 
  228000    227970.75   -1488082.6    3457.3547   -218.66561    2.0362849    100707.53    3.9903846    1.1249201    1.1249201 
  229000    228970.75   -1489846.5    3443.6767   -180.03032    2.0441587    100319.62    3.9519231    1.1252396    1.1252396 
  230000    229970.75   -1489344.3    3471.4186   -36.014387    2.0732229    98913.253    3.9711538    1.1249201    1.1249201 
  231000    230970.75   -1487866.4    3442.8218   -3379.1477    2.0298719    101025.69    3.9519231    1.1277955    1.1277955 
  232000    231970.75     -1487779    3455.7194   -1034.2323    2.0442249    100316.37    3.9615385    1.1258786    1.1258786 
  233000    232970.75   -1488177.1    3471.0949   -1125.1663    2.0396047    100543.61    3.9903846    1.1265176    1.1265176 
  234000    233970.75     -1490371     3365.356   -3531.3414    2.0588189    99605.272    3.9807692    1.1265176    1.1265176 
  235000    234970.75   -1488437.1     3452.876   -5178.8408    2.0376346    100640.82    3.9807692    1.1386581    1.1386581 
  236000    235970.75     -1490083    3402.0595   -2433.2355    2.0502199    100023.04    3.9711538    1.1277955    1.1277955 
  237000    236970.75   -1488410.6    3423.9437    -1978.378    2.0266108    101188.26    3.9423077    1.1258786    1.1258786 
  238000    237970.75   -1490380.9    3400.9077    3157.0514     2.054918    99794.355    3.9615385    1.1265176    1.1265176 
  239000    238970.75   -1489529.5    3427.6481   -1405.4443    2.0223273    101402.59    3.9519231    1.1313099    1.1313099 
  240000    239970.75   -1490820.3    3446.2763    630.65151    2.0561571    99734.214    3.9903846    1.1514377    1.1514377 
  241000    240970.75   -1492805.1     3368.963     415.8848     2.041791    100435.95    3.9711538    1.1453674    1.1453674 
  242000    241970.75     -1490299    3430.4589    211.23015    2.0503273     100017.8    3.9807692    1.1351438    1.1351438 
  243000    242970.75   -1489510.1    3432.5022    7953.7009    2.0666559    99227.557    3.9615385     1.127476     1.127476 
  244000    243970.75   -1491547.3    3408.6485   -86.181068    2.0762784    98767.687    3.9711538     1.143131     1.143131 
  245000    244970.75   -1491516.4    3360.7021   -1805.1741     2.080754    98555.242    3.9807692     1.127476     1.127476 
  246000    245970.75   -1490408.7     3438.403    2597.4259    2.0667132    99224.806    3.9903846    1.1335463    1.1335463 
  247000    246970.75     -1492586    3347.3148   -1818.5888    2.0424593    100403.09    3.9423077     1.143131     1.143131 
  248000    247970.75   -1492765.4    3334.0782   -1539.1987    2.0780961    98681.294    3.9615385    1.1367412    1.1367412 
  249000    248970.75   -1493819.8    3333.9317    972.33773    2.0711603    99011.757    3.9807692    1.1348243    1.1348243 
  250000    249970.75   -1491757.7    3414.9879    1245.6414    2.0717356     98984.26    3.9807692    1.1402556    1.1402556 
  251000    250970.75   -1492306.4    3320.8096    643.65556    2.0654729    99284.391    3.9423077     1.129393     1.129393 
  252000    251970.75   -1494914.6    3316.4266    1129.2461    2.0584256    99624.304    3.9807692    1.1383387    1.1383387 
  253000    252970.75   -1494009.6     3354.614    1540.1912    2.0706766    99034.886    3.9615385    1.1367412    1.1367412 
  254000    253970.75   -1495934.6    3282.1717   -1162.8801    2.0688652    99121.594    3.9519231     1.143131     1.143131 
  255000    254970.75   -1494469.5    3344.1968   -6250.7678    2.0592172    99586.007    3.9807692      1.14377      1.14377 
  256000    255970.75   -1493386.9    3231.2462   -449.63886     2.094543    97906.426    3.9807692    1.1482428    1.1482428 
  257000    256970.75   -1494366.3     3295.409   -2064.8147    2.0907056    98086.128    3.9807692     1.128754     1.128754 
  258000    257970.75     -1493974    3272.9541   -3929.6182    2.0798843    98596.456    3.9711538    1.1303514    1.1303514 
  259000    258970.75   -1491957.8    3322.9716    1264.7829    2.0804846    98568.007    3.9807692    1.1421725    1.1421725 
  260000    259970.75   -1494798.3    3335.6327    1662.1406    2.0798709    98597.091    3.9903846    1.1440895    1.1440895 
  261000    260970.75     -1494378    3327.7871     405.3578     2.074723    98841.734    3.9903846     1.141853     1.141853 
  262000    261970.75   -1492771.2    3330.0133   -1386.8125    2.1032886    97499.325    3.9807692    1.1447284    1.1447284 
  263000    262970.75   -1494302.7    3326.5597    248.26671    2.0989864    97699.164    3.9615385    1.1469649    1.1469649 
  264000    263970.75   -1495869.6    3277.8512     838.3252    2.0809227    98547.254    3.9807692    1.1511182    1.1511182 
  265000    264970.75   -1494195.3    3374.6203   -150.73043    2.1170835     96864.02    3.9903846    1.1482428    1.1482428 
  266000    265970.75   -1496405.6    3252.7404   -2341.9337     2.070551    99040.893    3.9711538    1.1415335    1.1415335 
  267000    266970.75   -1494488.4    3279.9761    1588.4778    2.1284386    96347.254    3.9903846    1.1453674    1.1453674 
  268000    267970.75   -1497353.1    3244.9106   -4173.2006    2.0971402    97785.172    3.9903846      1.15623      1.15623 
  269000    268970.75   -1496300.5    3229.2936    2056.2905    2.1141586    96998.029    3.9711538    1.1485623    1.1485623 
  270000    269970.75   -1497127.5    3245.5101   -1308.8101    2.0813129    98528.778    3.9903846    1.1482428    1.1482428 
  271000    270970.75   -1498164.9     3220.104    1236.5866    2.1279105    96371.169    3.9519231    1.1597444    1.1597444 
  272000    271970.75   -1498858.3    3258.5062   -871.88288     2.096144    97831.645    3.9519231    1.1587859    1.1587859 
  273000    272970.75   -1496640.1     3277.713    2090.3498    2.1011318    97599.406    3.9711538    1.1546326    1.1546326 
  274000    273970.75   -1498573.4    3235.7877    1340.8333    2.1102546    97177.476    3.9807692    1.1578275    1.1578275 
  275000    274970.75   -1496080.4    3254.2431    1337.8927    2.1330233    96140.166    3.9807692    1.1482428    1.1482428 
  276000    275970.75   -1496810.6    3219.0866    2762.3162    2.1167278    96880.296    3.9807692    1.1527157    1.1527157 
  277000    276970.75   -1497232.1    3160.6288    183.54912    2.1254604    96482.258    3.9711538    1.1498403    1.1498403 
  278000    277970.75   -1497460.8    3250.4132    3862.4322    2.0929043    97983.083    3.9711538    1.1584665    1.1584665 
  279000    278970.75   -1498687.8    3216.6032    10.179075    2.1056674     97389.18    3.9903846    1.1485623    1.1485623 
  280000    279970.75   -1499067.6    3177.3064   -617.37233    2.1014358     97585.29    3.9711538    1.1555911    1.1555911 
  281000    280970.75   -1498783.2    3200.0974    25.721904    2.1068824    97333.014    3.9903846    1.1523962    1.1523962 
  282000    281970.75   -1497661.6    3189.0957    -463.0644    2.1182886    96808.914    3.9903846    1.1450479    1.1450479 
  283000    282970.75   -1498450.7    3113.1203   -1093.2347    2.1201494    96723.946    3.9711538    1.1517572    1.1517572 
  284000    283970.75   -1498677.7    3193.5522   -2123.4634    2.1362031    95997.058    3.9903846    1.1527157    1.1527157 
  285000    284970.75     -1498619    3219.9755    4010.8398    2.1255596    96477.753    3.9423077    1.1587859    1.1587859 
  286000    285970.75     -1501189    3199.3604   -1824.6329     2.106652    97343.658    3.9615385    1.1476038    1.1476038 
  287000    286970.75     -1498467    3191.8977     3041.523    2.1225592    96614.135    3.9903846      1.15623      1.15623 
  288000    287970.75     -1500367    3165.2158   -759.46925    2.1124876    97074.757    3.9903846    1.1587859    1.1587859 
  289000    288970.75   -1500056.8    3075.3664    2620.6018    2.1132543    97039.538    3.9807692    1.1492013    1.1492013 
  290000    289970.75   -1499384.2    3129.0999    1636.0868    2.1322644    96174.385    3.9903846    1.1530351    1.1530351 
  291000    290970.75   -1498215.9    3127.5532   -786.14966    2.1147697    96970.002    3.9807692    1.1482428    1.1482428 
  292000    291970.75   -1498876.2     3194.754    868.37366      2.14499    95603.811    3.9807692    1.1603834    1.1603834 
  293000    292970.75   -1501558.4    3108.2415    812.71259    2.1065697    97347.466    3.9711538    1.1607029    1.1607029 
  294000    293970.75   -1501743.4    3170.6949    1349.6104    2.1337518    96107.345    3.9807692    1.1699681    1.1699681 
  295000    294970.75   -1501339.3    3120.1904    1835.0631    2.1365877     95979.78    3.9711538    1.1536741    1.1536741 
  296000    295970.75   -1502049.3    3059.6168   -3923.8331    2.1286605    96337.212    3.9903846    1.1476038    1.1476038 
  297000    296970.75     -1502435    3098.4731   -725.65929    2.1540324    95202.475    3.9903846    1.1658147    1.1658147 
  298000    297970.75   -1502028.1    3144.0974   -364.53459    2.1391847    95863.258    3.9615385    1.1610224    1.1610224 
  299000    298970.75   -1502023.8    3147.1277   -1352.7912    2.1294796    96300.156            4    1.1629393    1.1629393 
  300000    299970.75   -1499900.9    3151.8369    1927.0844    2.1622755    94839.541            4    1.1546326    1.1546326 
  301000    300970.75   -1502951.5    3115.2019   -3116.2331    2.1318743    96191.984    3.9807692    1.1623003    1.1623003 
  302000    301970.75   -1502224.6    3070.1458    1431.6891    2.1505356    95357.277    3.9903846     1.158147     1.158147 
  303000    302970.75   -1501834.7    3079.8617    -1498.418    2.1282073    96357.725    3.9711538    1.1638978    1.1638978 
  304000    303970.75   -1505288.1    3031.5886    832.47366    2.1625063    94829.421    3.9903846     1.171885     1.171885 
  305000    304970.75   -1504166.8    3063.3327    1123.6682    2.1760912     94237.42    3.9711538    1.1702875    1.1702875 
  306000    305970.75   -1502596.7    3120.5426   -2977.3741    2.1304927    96254.362    3.9615385    1.1619808    1.1619808 
  307000    306970.75   -1502466.3     3067.557   -50.528285    2.1708748    94463.864            4    1.1616613    1.1616613 
  308000    307970.75   -1503527.9    3063.5451   -718.74552    2.1415835    95755.884            4    1.1591054    1.1591054 
  309000    308970.75     -1504700    3030.0093    996.45755    2.1684391    94569.969    3.9807692    1.1699681    1.1699681 
  310000    309970.75   -1504006.8    3046.8857    424.73555    2.1489013    95429.799    3.9807692     1.171885     1.171885 
  311000    310970.75   -1504394.1    3035.7299    366.41544    2.1637195    94776.251    3.9903846    1.1667732    1.1667732 
  312000    311970.75     -1503534    3037.5346    137.53629    2.1280485    96364.917    3.9903846    1.1623003    1.1623003 
  313000    312970.75   -1502947.7    3084.6896   -721.40681    2.1665832    94650.977    3.9807692    1.1699681    1.1699681 
  314000    313970.75   -1504168.1    3063.6292   -761.30881    2.1702711    94490.139            4    1.1626198    1.1626198 
  315000    314970.75   -1505492.3    3019.2014   -941.92127    2.1627683    94817.933            4     1.171246     1.171246 
  316000    315970.75   -1502882.1    3065.2125    2952.8817    2.1619001     94856.01    3.9807692    1.1731629    1.1731629 
  317000    316970.75   -1505650.8    2981.5822    349.01914    2.1738947    94332.637            4    1.1728435    1.1728435 
  318000    317970.75     -1505129    2951.1364    435.84843    2.1849679    93854.567    3.9903846    1.1651757    1.1651757 
  319000    318970.75   -1505452.4    2994.9373     1907.206    2.1702033    94493.092    3.9807692    1.1674121    1.1674121 
  320000    319970.75   -1505552.6    2990.7764      2388.28    2.2214641    92312.639    3.9903846    1.1881789    1.1881789 
  321000    320970.75   -1506102.1    3022.6378    -2969.034    2.1655723    94695.163    3.9903846    1.1674121    1.1674121 
  322000    321970.75   -1506078.3    2963.5035   -299.02073    2.1910135    93595.597    3.9903846    1.1638978    1.1638978 
  323000    322970.75   -1504696.8    2994.5474     3358.906    2.1769414    94200.614    3.9903846    1.1766773    1.1766773 
  324000    323970.75   -1506553.5    2971.9086   -875.45795    2.1644656    94743.579            4      1.15623      1.15623 
  325000    324970.75   -1507646.5    2981.2129   -448.94553    2.1930235    93509.813    3.9807692    1.1683706    1.1683706 
  326000    325970.75   -1508065.7    2921.4828     193.9954    2.1774478    94178.705    3.9711538     1.170607     1.170607 
  327000    326970.75   -1506815.2    2961.4772   -1942.8989    2.1911424    93590.092    3.9903846    1.1658147    1.1658147 
  328000    327970.75   -1507216.8    2969.8756      723.203    2.2008905    93175.567    3.9903846    1.1747604    1.1747604 
  329000    328970.75   -1510053.8    2914.8282    2730.2012    2.1795264    94088.888            4    1.1744409    1.1744409 
  330000    329970.75   -1507914.7    2990.7113   -283.71737    2.1802868    94056.075    3.9711538    1.1811502    1.1811502 
  331000    330970.75   -1508873.2    2946.6447   -577.17042    2.1897344    93650.269    3.9903846    1.1766773    1.1766773 
  332000    331970.75   -1506896.9    2952.4963    2489.0145    2.2023076    93115.609    3.9807692    1.1801917    1.1801917 
  333000    332970.75   -1509773.3    2904.1304    682.28065    2.1939186    93471.662    3.9807692    1.1738019    1.1738019 
  334000    333970.75   -1507867.5    2897.3437   -474.90235    2.2061344    92954.092    3.9903846    1.1782748    1.1782748 
  335000    334970.75   -1509792.2    2874.5075   -134.16463    2.1635965    94781.637            4     1.184345     1.184345 
  336000    335970.75   -1509748.4    2876.5942    1490.5878    2.1953631    93410.161    3.9903846    1.1792332    1.1792332 
  337000    336970.75   -1509693.2    2919.0618   -3356.9466    2.1942696     93456.71            4    1.1824281    1.1824281 
  338000    337970.75   -1508600.4    2948.3872   -2927.8718    2.1988757    93260.943            4    1.1702875    1.1702875 
  339000    338970.75   -1508644.5    2882.6263   -790.47047    2.2136878     92636.92    3.9807692    1.1753994    1.1753994 
  340000    339970.75   -1510978.9    2874.8788    376.61611    2.1945388    93445.246    3.9807692    1.1789137    1.1789137 
  341000    340970.75   -1508254.6    2938.0936    1871.7477    2.2207856    92340.844    3.9807692    1.1814696    1.1814696 
  342000    341970.75   -1511033.3    2882.4961    2822.7818    2.2203092    92360.659    3.9807692    1.1900958    1.1900958 
  343000    342970.75   -1510679.2    2918.0166    1369.9111     2.198948    93257.876            4    1.1763578    1.1763578 
  344000    343970.75   -1510666.5     2914.229    1426.7003    2.2149306    92584.942            4    1.1920128    1.1920128 
  345000    344970.75   -1509538.1    2855.7791    2406.1073      2.22918    91993.117    3.9903846    1.1878594    1.1878594 
  346000    345970.75   -1511904.8     2896.015   -1477.6331    2.1955938    93400.345    3.9711538     1.184984     1.184984 
  347000    346970.75   -1510128.9    2911.9207    3090.0379    2.2167414    92509.309    3.9903846    1.1910543    1.1910543 
  348000    347970.75   -1511012.3    2888.6781   -3825.7833    2.1625295    94828.401    3.9903846     1.170607     1.170607 
  349000    348970.75     -1509193    2900.5839    3137.9646     2.233047    91833.812    3.9807692    1.1833866    1.1833866 
  350000    349970.75     -1511993    2865.5152   -1019.6643    2.2098321    92798.549    3.9711538    1.1763578    1.1763578 
  351000    350970.75   -1511550.9    2862.3577   -438.77094     2.247623    91238.263            4    1.1865815    1.1865815 
  352000    351970.75   -1512286.3    2824.3151   -2172.1747    2.2017771    93138.046    3.9615385    1.1750799    1.1750799 
  353000    352970.75   -1509559.4     2839.765    3804.3678    2.2236741    92220.894    3.9807692    1.1821086    1.1821086 
  354000    353970.75     -1512789     2804.327   -251.53943     2.233709    91806.595    3.9903846     1.186262     1.186262 
  355000    354970.75   -1514116.7    2788.0385   -2621.2404    2.2163193     92526.93    3.9903846    1.1878594    1.1878594 
  356000    355970.75   -1511076.2    2823.6917    2325.6972    2.2333906    91819.683    3.9807692     1.184984     1.184984 
  357000    356970.75   -1513165.8    2806.3071   -59.503849     2.228197      92033.7    3.9807692    1.1801917    1.1801917 
  358000    357970.75   -1512161.7    2800.3174   -3862.2901    2.2117769    92716.953    3.9711538    1.1837061    1.1837061 
  359000    358970.75   -1514199.3    2809.1587   -2861.4465    2.2262719    92113.283    3.9903846    1.1932907    1.1932907 
  360000    359970.75   -1513526.2    2767.0495    1286.7311    2.2227025    92261.208            4    1.1884984    1.1884984 
  361000    360970.75   -1512573.9    2786.2128    469.61592    2.2520134    91060.389    3.9807692    1.1881789    1.1881789 
  362000    361970.75   -1513309.4    2756.2364      274.475    2.2257106    92136.516    3.9807692    1.1811502    1.1811502 
  363000    362970.75     -1512820    2784.2573   -575.73369    2.2140807    92620.482            4    1.1821086    1.1821086 
  364000    363970.75   -1513955.1    2759.9902   -1912.0632    2.2298269     91966.43    3.9711538    1.1907348    1.1907348 
  365000    364970.75   -1513395.8    2769.2066   -1869.1113    2.2432736    91415.163    3.9903846    1.1875399    1.1875399 
  366000    365970.75   -1515064.5      2760.86   -1974.9261    2.2216763    92303.825            4    1.1910543    1.1910543 
  367000    366970.75   -1513560.8    2773.1693    -148.5408    2.2381728    91623.495    3.9903846    1.1990415    1.1990415 
  368000    367970.75   -1517042.4    2779.9204    -1370.674    2.2162653    92529.183    3.9807692    1.1929712    1.1929712 
  369000    368970.75   -1515009.6    2702.6561   -953.61007    2.2520426    91059.207    3.9903846     1.185623     1.185623 
  370000    369970.75   -1514745.4    2732.9231    -2337.996    2.2374813    91651.813            4    1.1897764    1.1897764 
  371000    370970.75   -1514005.3    2784.6718   -1144.7352    2.2490866     91178.89    3.9903846     1.185623     1.185623 
  372000    371970.75   -1516486.9     2738.693    2977.8051    2.2411327    91502.489            4    1.1923323    1.1923323 
  373000    372970.75   -1515172.8    2717.6786   -2106.1454    2.2434357    91408.555            4    1.1881789    1.1881789 
  374000    373970.75   -1516903.9    2757.1534    72.455507    2.2445769    91362.082            4     1.200639     1.200639 
  375000    374970.75   -1514937.9    2753.1469   -3612.3933     2.229655    91973.518            4    1.1900958    1.1900958 
  376000    375970.75   -1516074.5    2711.6639   -557.18748    2.2360185    91711.771    3.9903846    1.1932907    1.1932907 
  377000    376970.75   -1516343.3    2686.9196   -1088.7998    2.2453439    91330.871            4    1.1910543    1.1910543 
  378000    377970.75   -1516582.7    2731.9456    1279.9761    2.2568821    90863.947            4    1.1971246    1.1971246 
  379000    378970.75   -1516568.5    2665.7952   -1566.8821     2.250969    91102.639            4    1.1865815    1.1865815 
  380000    379970.75   -1515336.7    2731.9426   -425.22225    2.2722378    90249.891            4    1.1958466    1.1958466 
  381000    380970.75   -1516642.6    2728.2984    963.58293    2.2393617    91574.851            4    1.1984026    1.1984026 
  382000    381970.75   -1516859.7    2729.9145   -2390.3074    2.2620837     90655.01    3.9903846     1.201278     1.201278 
  383000    382970.75     -1518413    2640.5878   -266.59504    2.2615742    90675.433    3.9903846    1.1980831    1.1980831 
  384000    383970.75   -1517649.4     2670.662    1072.6206    2.2558673    90904.822            4    1.2022364    1.2022364 
  385000    384970.75   -1518255.6    2672.0886   -3333.5539    2.2702471    90329.029            4    1.1884984    1.1884984 
  386000    385970.75   -1519080.1    2653.7478    589.57571    2.2719754    90260.314    3.9903846    1.2031949    1.2031949 
  387000    386970.75   -1518690.9    2688.8556   -2435.9804    2.2445908    91361.515            4     1.201278     1.201278 
  388000    387970.75   -1518011.7     2700.076    4374.4348    2.2717364     90269.81            4    1.1984026    1.1984026 
  389000    388970.75   -1517400.8       2641.8   -716.91553    2.2628627    90623.799    3.9807692    1.1913738    1.1913738 
  390000    389970.75   -1520008.4    2619.8561   -1936.5287    2.2655902    90514.702            4    1.1980831    1.1980831 
  391000    390970.75   -1517212.3    2660.7441    529.79406     2.289069    89586.299            4    1.2035144    1.2035144 
  392000    391970.75   -1518100.1    2682.1675   -3996.7459    2.2507802    91110.282    3.9807692    1.1961661    1.1961661 
  393000    392970.75   -1519326.7    2660.1977    1738.7138    2.2717665    90268.617    3.9807692    1.1964856    1.1964856 
  394000    393970.75   -1517765.2     2693.282    -1687.218    2.2712745     90288.17    3.9903846    1.1974441    1.1974441 
  395000    394970.75   -1519662.3    2638.4125      -478.94    2.2874037    89651.521            4    1.2025559    1.2025559 
  396000    395970.75   -1519215.4    2587.7676    413.46862    2.2650971    90534.404    3.9903846    1.2092652    1.2092652 
  397000    396970.75   -1519798.5    2603.3736   -84.476969    2.2614197    90681.629            4    1.2035144    1.2035144 
  398000    397970.75   -1521137.2    2583.2408   -2573.7022    2.2783524    90007.681    3.9903846    1.2118211    1.2118211 
  399000    398970.75   -1520179.9    2589.3099    5450.7548    2.2738625    90185.409            4    1.2083067    1.2083067 
  400000    399970.75   -1520442.4    2636.3889    3016.2868    2.2750793    90137.173    3.9903846    1.2079872    1.2079872 
  401000    400970.75   -1521528.7    2564.8192    927.45392    2.2852452    89736.199            4    1.2031949    1.2031949 
  402000    401970.75   -1520757.3    2542.8768   -4083.9506     2.287135    89662.053    3.9903846    1.1977636    1.1977636 
  403000    402970.75   -1521490.1    2585.6717   -2308.6511    2.2908351    89517.234    3.9807692    1.2028754    1.2028754 
  404000    403970.75   -1521350.7    2533.2229   -450.55608     2.296088    89312.439    3.9903846    1.2099042    1.2099042 
  405000    404970.75   -1521446.6    2556.4447   -313.98959    2.2897323    89560.346            4    1.2044728    1.2044728 
  406000    405970.75   -1522857.4    2593.0292   -2311.5643    2.2815354     89882.11            4    1.2079872    1.2079872 
  407000    406970.75   -1523525.2    2529.6708   -3246.5159    2.2795141    89961.813    3.9807692    1.1971246    1.1971246 
  408000    407970.75   -1522231.3     2546.162    2496.4835    2.3031787    89037.477            4    1.2089457    1.2089457 
  409000    408970.75   -1521717.1    2614.0644    2264.2192    2.2868168    89674.529            4    1.2003195    1.2003195 
  410000    409970.75   -1523627.5     2570.696    1205.6899    2.2935099    89412.832            4    1.2182109    1.2182109 
  411000    410970.75   -1525442.7    2493.5466   -342.51232    2.3038378    89012.004    3.9903846    1.2121406    1.2121406 
  412000    411970.75   -1522015.1    2562.6947    146.93297    2.3281958    88080.742            4    1.2070288    1.2070288 
  413000    412970.75   -1523337.8    2506.3158   -620.15185    2.2762478      90090.9    3.9903846    1.2121406    1.2121406 
  414000    413970.75   -1523424.1    2518.3572   -296.81403     2.314033    88619.831            4    1.2025559    1.2025559 
  415000    414970.75   -1523900.6    2491.1343   -1689.0984    2.2992499    89189.616            4    1.2121406    1.2121406 
  416000    415970.75   -1523789.5    2511.1089    1286.8211    2.3098455    88780.492            4     1.213099     1.213099 
  417000    416970.75   -1523309.7    2520.8502    1110.2041    2.3014332    89105.006            4     1.213738     1.213738 
  418000    417970.75   -1523002.5    2482.7361    4362.3771    2.3256602    88176.774            4    1.2178914    1.2178914 
  419000    418970.75   -1522986.2    2536.5268    1977.7519    2.2964524    89298.265    3.9807692    1.2166134    1.2166134 
  420000    419970.75   -1524074.1    2514.3561    562.15898    2.3049675    88968.375            4     1.213099     1.213099 
  421000    420970.75   -1524227.4    2530.6922   -1002.7339    2.3034261    89027.911            4    1.2047923    1.2047923 
  422000    421970.75   -1525299.4    2467.2415    1729.0332     2.307437    88873.158            4     1.213738     1.213738 
  423000    422970.75   -1525271.4    2501.2754   -2905.0434    2.3001272    89155.598            4    1.2063898    1.2063898 
  424000    423970.75   -1523356.6    2523.9875    285.33772     2.324804     88209.25            4    1.2044728    1.2044728 
  425000    424970.75   -1526145.8    2503.2045    2300.8299    2.3164724     88526.51            4     1.215016     1.215016 
  426000    425970.75   -1526346.3    2467.9468   -264.19233    2.3347285     87834.29    3.9903846     1.213099     1.213099 
  427000    426970.75   -1525367.1    2450.2109    2497.4599    2.3282284    88079.509    3.9903846    1.2108626    1.2108626 
  428000    427970.75   -1526045.5     2403.199    1679.0482    2.3283673    88074.254            4    1.2108626    1.2108626 
  429000    428970.75   -1528185.1    2448.9818   -2805.6629    2.3152997    88571.347            4    1.2188498    1.2188498 
  430000    429970.75   -1526193.2    2436.8679   -512.23152    2.3386534    87686.877            4    1.2127796    1.2127796 
  431000    430970.75     -1526705    2431.5039   -1127.9826    2.3050562    88964.952    3.9903846    1.2204473    1.2204473 
  432000    431970.75   -1527261.9    2431.0582    953.72284    2.3275045    88106.904    3.9903846    1.2185304    1.2185304 
  433000    432970.75   -1527745.7    2445.9225   -1186.2391    2.3349745    87825.036            4    1.2111821    1.2111821 
  434000    433970.75   -1526784.9    2431.7333   -1843.2652    2.3212354    88344.862    3.9903846    1.2140575    1.2140575 
  435000    434970.75   -1527382.3    2422.3513    3530.5492    2.3528012    87159.603            4    1.2236422    1.2236422 
  436000    435970.75   -1526823.5    2426.4484   -429.54985    2.3514421    87209.981            4    1.2226837    1.2226837 
  437000    436970.75   -1529737.9    2391.2402   -3512.0759    2.3327804    87907.638            4    1.2185304    1.2185304 
  438000    437970.75   -1529107.1     2397.566    639.14602    2.3258285    88170.393            4    1.2121406    1.2121406 
  439000    438970.75   -1527856.5     2420.311    4987.6663    2.3514846    87208.403    3.9807692    1.2233227    1.2233227 
  440000    439970.75   -1530230.2    2344.3655   -358.01532    2.3347788    87832.397            4    1.2300319    1.2300319 
  441000    440970.75   -1528379.2    2414.3184    3256.5567    2.3533208    87140.356            4    1.2220447    1.2220447 
  442000    441970.75   -1527917.5    2421.9288    3531.0582    2.3371988    87741.451            4    1.2194888    1.2194888 
  443000    442970.75   -1527923.8    2374.3633   -1155.4196     2.331351    87961.536    3.9903846    1.2169329    1.2169329 
  444000    443970.75   -1527101.9    2396.3737    2509.2012    2.3439287    87489.529    3.9807692    1.2127796    1.2127796 
  445000    444970.75   -1529370.3    2368.8302   -2642.8065    2.3178722    88473.047    3.9903846    1.2265176    1.2265176 
  446000    445970.75   -1528618.1    2378.4101   -777.28986    2.3448291    87455.933            4    1.2236422    1.2236422 
  447000    446970.75   -1529268.8    2351.6406    1382.3023    2.3439898    87487.248            4    1.2178914    1.2178914 
  448000    447970.75   -1528512.3    2369.6471    6708.1818    2.3561198    87036.838    3.9903846    1.2242812    1.2242812 
  449000    448970.75   -1528069.9     2371.526    1684.6237     2.350946    87228.384            4    1.2166134    1.2166134 
  450000    449970.75     -1529460    2351.5509     -2332.29    2.3679433    86602.249    3.9903846    1.2175719    1.2175719 
  451000    450970.75   -1528820.1    2393.2543    2402.2727    2.3512125    87218.497            4    1.2172524    1.2172524 
  452000    451970.75   -1531221.5    2303.8599     1354.327    2.3611268    86852.266            4    1.2265176    1.2265176 
  453000    452970.75   -1529019.4    2336.5006   -317.24536    2.3674408    86620.631            4    1.2242812    1.2242812 
  454000    453970.75   -1530069.4    2316.9649    15.250685    2.3572321     86995.77            4    1.2188498    1.2188498 
  455000    454970.75   -1529583.9    2338.9037    1556.5307    2.3672806    86626.495            4    1.2255591    1.2255591 
  456000    455970.75   -1532176.1    2309.0304   -2640.3534    2.3599664    86894.973    3.9903846    1.2210863    1.2210863 
  457000    456970.75   -1531961.6    2292.3759    1099.5484    2.3535109     87133.32            4    1.2361022    1.2361022 
  458000    457970.75   -1530853.3    2364.4485   -1939.6499    2.3580263    86966.469            4    1.2332268    1.2332268 
  459000    458970.75   -1532506.2    2327.5757   -1392.2642    2.3673076    86625.505    3.9807692     1.227476     1.227476 
  460000    459970.75   -1530729.9    2295.6746   -1413.0335    2.3612375    86848.196            4    1.2223642    1.2223642 
  461000    460970.75     -1532603    2294.4121    -1692.979    2.3659376    86675.667            4    1.2258786    1.2258786 
  462000    461970.75   -1529853.3    2275.4332     78.55574    2.3728904    86421.698    3.9807692    1.2233227    1.2233227 
  463000    462970.75   -1533211.6     2257.092    22.866477     2.365202    86702.623    3.9807692    1.2316294    1.2316294 
  464000    463970.75   -1531524.4    2313.4014    2166.7815    2.3883076     85863.82            4    1.2265176    1.2265176 
  465000    464970.75     -1532562    2262.6778    3454.8155    2.3753237    86333.169            4    1.2329073    1.2329073 
  466000    465970.75   -1532702.8    2276.8478   -447.70648    2.3638602    86751.839    3.9903846    1.2217252    1.2217252 
  467000    466970.75   -1532546.6    2316.6888   -671.84215     2.386521    85928.102    4.0096154    1.2214058    1.2214058 
  468000    467970.75   -1532676.1    2257.6833   -3457.9336    2.3968631    85557.334    3.9903846    1.2338658    1.2338658 
  469000    468970.75     -1532298    2289.2126    1584.3387      2.38978     85810.92            4    1.2325879    1.2325879 
  470000    469970.75   -1534935.9    2218.9544    416.25156    2.3844022    86004.458            4     1.227476     1.227476 
  471000    470970.75   -1534033.8    2265.3847   -144.64818    2.3764988    86290.477            4    1.2309904    1.2309904 
  472000    471970.75   -1532803.1    2235.5776    883.33048    2.4028393    85344.543            4    1.2284345    1.2284345 
  473000    472970.75   -1533177.4    2283.8974    289.15232    2.3956824    85599.499            4    1.2204473    1.2204473 
  474000    473970.75   -1533883.9    2241.6228    1144.6249    2.3906253    85780.578            4     1.229393     1.229393 
  475000    474970.75   -1534446.3     2225.319   -4195.8418    2.3781797    86229.487            4    1.2361022    1.2361022 
  476000    475970.75   -1533649.8    2251.1002    629.57278    2.4134663     84968.75    3.9807692    1.2405751    1.2405751 
  477000    476970.75   -1534402.3    2233.1515   -1157.0027    2.3829014    86058.623            4    1.2351438    1.2351438 
  478000    477970.75     -1536281    2197.5986     366.0023    2.3919671    85732.456            4     1.227476     1.227476 
  479000    478970.75   -1534861.3    2180.3852      1588.77    2.3971461    85547.234            4    1.2319489    1.2319489 
  480000    479970.75   -1534465.2    2236.6822   -1829.3136    2.4042386     85294.87            4    1.2338658    1.2338658 
  481000    480970.75   -1535795.6    2189.2788   -2409.5406    2.3864622    85930.218            4    1.2335463    1.2335463 
  482000    481970.75     -1536119    2161.0338    3032.1184    2.4059851    85232.954            4    1.2361022    1.2361022 
  483000    482970.75   -1535048.8    2203.5593   -3240.9901    2.3977268    85526.516            4    1.2357827    1.2357827 
  484000    483970.75   -1537145.2    2183.3457    1002.4322    2.4248545    84569.699            4    1.2428115    1.2428115 
  485000    484970.75   -1537847.1    2160.2065    327.41282    2.4191441    84769.329            4    1.2370607    1.2370607 
  486000    485970.75   -1537128.5    2182.4449   -7403.8374    2.3930908      85692.2            4    1.2357827    1.2357827 
  487000    486970.75   -1536486.7    2131.2355    1413.0007    2.4155753    84894.567            4    1.2380192    1.2380192 
  488000    487970.75     -1536679    2144.9562   -113.17614    2.3973844     85538.73            4    1.2428115    1.2428115 
  489000    488970.75   -1536884.1    2136.4694   -3310.4757     2.401251    85400.993            4    1.2415335    1.2415335 
  490000    489970.75     -1537049    2153.5949    2460.5968    2.4203263    84727.922            4     1.241853     1.241853 
  491000    490970.75   -1537101.6    2197.9941   -78.474346    2.4115986    85034.557    3.9903846    1.2354633    1.2354633 
  492000    491970.75   -1536401.2    2166.8779       1001.1    2.4096442    85103.524            4    1.2319489    1.2319489 
  493000    492970.75   -1539686.6    2094.8167   -2766.7501    2.4033412     85326.72            4    1.2463259    1.2463259 
  494000    493970.75   -1537090.4    2171.8613    1220.1031    2.4062707    85222.838            4    1.2405751    1.2405751 
  495000    494970.75   -1539677.7    2092.4394   -1274.5725    2.4071044    85193.321            4    1.2460064    1.2460064 
  496000    495970.75   -1537377.1    2171.0411   -1421.8301    2.4182488    84800.712            4    1.2361022    1.2361022 
  497000    496970.75   -1537857.7    2103.6231   -697.65766     2.431304    84345.362            4    1.2373802    1.2373802 
  498000    497970.75   -1537525.2     2122.781    470.01761    2.4205415    84720.389    3.9903846    1.2396166    1.2396166 
  499000    498970.75   -1538912.6    2092.0663   -1617.4452    2.4218696    84673.932    3.9807692    1.2492013    1.2492013 
  500000    499970.75   -1537837.1    2108.5035   -3990.1703     2.401671    85386.057    3.9903846    1.2370607    1.2370607 
  501000    500970.75   -1539673.2    2080.6878   -174.92756    2.4319938    84321.439            4    1.2412141    1.2412141 
  502000    501970.75   -1538207.5    2081.8005   -1076.0817    2.4265313    84511.259            4    1.2408946    1.2408946 
  503000    502970.75     -1538724    2099.6451    1441.9877    2.4259439    84531.721    3.9903846    1.2485623    1.2485623 
  504000    503970.75   -1540852.9    2055.0251   -55.500843    2.4252666    84555.331            4    1.2453674    1.2453674 
  505000    504970.75   -1539020.8    2094.0202     1496.316     2.434919    84220.141            4    1.2476038    1.2476038 
  506000    505970.75   -1539951.4    2080.2988   -533.93383     2.422628    84647.423            4    1.2472843    1.2472843 
  507000    506970.75   -1538964.1    2074.2721    4330.8455    2.4352662     84208.13    3.9903846    1.2440895    1.2440895 
  508000    507970.75   -1540665.5    2063.1396    685.58656    2.4234873    84617.409            4    1.2472843    1.2472843 
  509000    508970.75   -1541877.9    2046.5231   -2487.8297    2.4216513    84681.562            4    1.2482428    1.2482428 
  510000    509970.75     -1541371    2008.9372    2386.9517    2.4629641    83261.148            4    1.2440895    1.2440895 
  511000    510970.75   -1541828.3    2029.6589   -500.37636    2.4209947     84704.53            4    1.2482428    1.2482428 
  512000    511970.75   -1541232.8    2006.3155    521.00077    2.4330953    84283.265            4    1.2463259    1.2463259 
  513000    512970.75     -1540665    2039.3037    488.18793    2.4391055    84075.583            4    1.2511182    1.2511182 
  514000    513970.75   -1541311.2    2028.7786    729.06652    2.4597535    83369.825            4    1.2466454    1.2466454 
  515000    514970.75   -1541956.9    2024.9607   -3993.4518    2.4176517    84821.653            4    1.2440895    1.2440895 
  516000    515970.75   -1541557.2    2012.2033    2213.3303    2.4426841    83952.411            4    1.2488818    1.2488818 
  517000    516970.75   -1542323.2    2009.3586   -2162.5892    2.4365878    84162.456    3.9903846    1.2498403    1.2498403 
  518000    517970.75   -1542219.4    1998.1003   -1061.1079    2.4519645    83634.658            4    1.2514377    1.2514377 
  519000    518970.75   -1541458.4    2016.6481    4028.1872    2.4432454    83933.122            4    1.2370607    1.2370607 
  520000    519970.75     -1541398    1994.6056    480.77515    2.4530294    83598.352            4    1.2549521    1.2549521 
  521000    520970.75   -1543223.3    1986.4044   -1798.0126    2.4569649    83464.447            4    1.2527157    1.2527157 
  522000    521970.75   -1542065.3    2002.9794   -720.22947    2.4569167    83466.083            4    1.2523962    1.2523962 
  523000    522970.75   -1543026.8     2016.103   -1364.7839    2.4478828    83774.117            4    1.2504792    1.2504792 
  524000    523970.75   -1542952.4    1971.9111   -1382.3291    2.4574374    83448.398            4    1.2460064    1.2460064 
  525000    524970.75   -1543335.8    1957.2265    432.78267    2.4684839    83074.966            4    1.2492013    1.2492013 
  526000    525970.75     -1541780    1973.7663   -437.28869    2.4717751     82964.35            4    1.2495208    1.2495208 
  527000    526970.75   -1544369.4    1954.6219    715.62559    2.4671113    83121.186            4    1.2514377    1.2514377 
  528000    527970.75     -1544294    1921.0578    2588.8072    2.4640773    83223.534            4    1.2492013    1.2492013 
  529000    528970.75   -1544166.3    1962.2644    42.327294    2.4653279    83181.315            4    1.2511182    1.2511182 
  530000    529970.75   -1543314.6    1958.1452   -936.18647    2.4624721    83277.783            4    1.2546326    1.2546326 
  531000    530970.75   -1544962.8    1920.0678   -1151.2905    2.4717758    82964.329            4    1.2472843    1.2472843 
  532000    531970.75   -1544118.4    1942.4591    2920.7089    2.4686365    83069.832    3.9903846    1.2584665    1.2584665 
[...]
  825000    824970.75   -1591533.5    474.19219     707.1944    2.8298285    72467.012            4    1.3102236    1.3102236 
  826000    825970.75   -1591926.6    464.58158   -105.68157    2.8314316    72425.982            4    1.3108626    1.3108626 
  827000    826970.75   -1591482.6    469.07959   -979.27755     2.833091    72383.561            4    1.3102236    1.3102236 
  828000    827970.75   -1591889.6    464.24841    906.95879    2.8359891    72309.592            4    1.3111821    1.3111821 
  829000    828970.75   -1591754.8    445.99457    1874.8976    2.8407387    72188.695            4    1.3092652    1.3092652 
  830000    829970.75   -1592560.6    436.78437    3083.2242    2.8421297    72153.364            4    1.3105431    1.3105431 
  831000    830970.75   -1592204.1     450.2491    402.42081    2.8397398    72214.087            4    1.3105431    1.3105431 
  832000    831970.75   -1592126.4      441.026   -85.032601    2.8386762    72241.143            4    1.3108626    1.3108626 
  833000    832970.75   -1592662.5    435.11077    1907.7376     2.837592    72268.747            4    1.3105431    1.3105431 
  834000    833970.75   -1592664.7    437.48316    1450.9285    2.8399657    72208.342            4    1.3111821    1.3111821 
  835000    834970.75   -1592985.7    422.48218    455.22218    2.8391536    72228.996            4    1.3111821    1.3111821 
  836000    835970.75   -1592901.2    429.64126   -135.69665     2.842638    72140.461            4    1.3108626    1.3108626 
  837000    836970.75   -1593046.5    417.22242   -644.76703    2.8398943    72210.159            4    1.3108626    1.3108626 
  838000    837970.75   -1593605.2    409.23626   -1050.3827    2.8392743    72225.927            4    1.3111821    1.3111821 
  839000    838970.75   -1592855.8    410.17901   -699.33418    2.8396536     72216.28            4    1.3108626    1.3108626 
  840000    839970.75   -1593698.4    401.21002    1861.8994    2.8441447    72102.245            4    1.3111821    1.3111821 
  841000    840970.75   -1593832.9    398.77568    1974.3337    2.8467052    72037.392            4    1.3108626    1.3108626 
  842000    841970.75   -1593908.7    392.04679    1076.8512    2.8473191    72021.861            4    1.3105431    1.3105431 
  843000    842970.75   -1594012.8    378.45941    1469.7883    2.8520931    71901.306            4    1.3111821    1.3111821 
  844000    843970.75   -1593697.3    384.50905    214.28536     2.851971    71904.384            4    1.3111821    1.3111821 
  845000    844970.75   -1594444.5    392.07082    1172.4916    2.8495977    71964.269            4    1.3105431    1.3105431 
  846000    845970.75   -1594704.6    377.91178   -199.88749    2.8508893    71931.666            4    1.3111821    1.3111821 
  847000    846970.75   -1594695.7    366.94417    1167.1136     2.850521    71940.959            4    1.3108626    1.3108626 
  848000    847970.75   -1595329.4    359.68522     638.5396    2.8475968    72014.836            4    1.3111821    1.3111821 
  849000    848970.75   -1595292.7    356.70801   -765.78453    2.8483285    71996.336            4    1.3108626    1.3108626 
  850000    849970.75   -1595438.5     348.9369   -192.98581    2.8482648    71997.946            4    1.3111821    1.3111821 
  851000    850970.75   -1595492.5    353.67285    732.21032    2.8515907    71913.973            4    1.3111821    1.3111821 
  852000    851970.75   -1595108.9    343.41263    47.304179    2.8517622    71909.648            4    1.3108626    1.3108626 
  853000    852970.75   -1596093.2    333.45927   -77.856973    2.8544535    71841.849            4    1.3111821    1.3111821 
  854000    853970.75     -1595531    327.44738   -1346.7717    2.8547885    71833.418            4    1.3108626    1.3108626 
  855000    854970.75   -1596129.1    323.41495   -14.013825    2.8545059    71840.531            4    1.3111821    1.3111821 
  856000    855970.75   -1595588.5    322.91712    201.65768    2.8587056    71734.989            4    1.3111821    1.3111821 
  857000    856970.75   -1595862.8    312.89934    1294.6795    2.8625132    71639.572            4    1.3108626    1.3108626 
  858000    857970.75   -1595989.7    306.48532    1108.1372     2.864326     71594.23            4    1.3111821    1.3111821 
  859000    858970.75   -1596572.2    305.73645     734.3344     2.861848    71656.222            4    1.3111821    1.3111821 
  860000    859970.75   -1596456.5    302.10702   -26.071696     2.860125    71699.391            4    1.3111821    1.3111821 
Loop time of 30656.8 on 8 procs for 740000 steps with 5720 atoms

Performance: 2.086 ns/day, 11.508 hours/ns, 24.138 timesteps/s
92.1% CPU use with 8 MPI tasks x 1 OpenMP threads

MPI task timing breakdown:
Section |  min time  |  avg time  |  max time  |%varavg| %total
---------------------------------------------------------------
Pair    | 7984.1     | 8275       | 8535.4     | 199.7 | 26.99
Kspace  | 15051      | 15319      | 15610      | 147.3 | 49.97
Neigh   | 136.72     | 138.9      | 140.15     |   8.9 |  0.45
Comm    | 1062.1     | 1096.8     | 1120.6     |  63.7 |  3.58
Output  | 39.845     | 39.933     | 40.037     |   0.9 |  0.13
Modify  | 4509.1     | 5078.5     | 5292.9     | 405.6 | 16.57
Other   |            | 709        |            |       |  2.31

Nlocal:    715 ave 730 max 694 min
Histogram: 1 0 0 1 1 2 0 0 1 2
Nghost:    6456.12 ave 6475 max 6432 min
Histogram: 1 1 0 1 1 0 1 0 1 2
Neighs:    206187 ave 213039 max 200365 min
Histogram: 1 0 2 1 1 1 0 0 1 1
FullNghs:  412374 ave 424590 max 398172 min
Histogram: 1 0 0 2 1 1 1 0 0 2

Total # of neighbors = 3298992
Ave neighs/atom = 576.747
Neighbor list builds = 27605
Dangerous builds = 0
unfix           1

# 300K
# statistical average

fix             1 all npt temp 300 300 100 iso 0 0 1000

run             60000
PPPM initialization ...
WARNING: Using 12-bit tables for long-range coulomb (../kspace.cpp:321)
  G vector (1/distance) = 0.327951
  grid = 50 50 50
  stencil order = 5
  estimated absolute RMS force accuracy = 0.00370726
  estimated relative force accuracy = 1.11643e-05
  using double precision FFTs
  3d grid and FFT values/proc = 32768 17500
WARNING: More than one compute coord/atom (../compute_coord_atom.cpp:151)
WARNING: More than one compute coord/atom (../compute_coord_atom.cpp:151)
Per MPI rank memory allocation (min/avg/max) = 20.8 | 22.67 | 27.2 Mbytes
Step Time TotEng Temp Press Density Volume c_P c_O c_OO 
  860000    859970.75   -1596456.5    302.10702   -26.190335     2.860125    71699.391            4    1.3111821    1.3111821 
  861000    860970.75   -1595894.4    300.59516       1300.1    2.8638371    71606.453            4    1.3111821    1.3111821 
  862000    861970.75   -1596591.1    300.05362   -105.50732    2.8609295    71679.227            4    1.3108626    1.3108626 
  863000    862970.75   -1596549.1    299.71014    1152.2409    2.8633674      71618.2            4    1.3111821    1.3111821 
  864000    863970.75   -1596412.3    297.79748   -147.89283    2.8575725    71763.435            4    1.3111821    1.3111821 
  865000    864970.75     -1596847    302.49659   -940.92724    2.8562092    71797.688            4    1.3111821    1.3111821 
  866000    865970.75   -1596836.4    296.47557   -219.20281    2.8561431     71799.35            4    1.3111821    1.3111821 
  867000    866970.75   -1597035.2    300.04501   -1193.9901    2.8470763    72028.001            4    1.3111821    1.3111821 
  868000    867970.75   -1596938.1    298.45341    -1727.503    2.8562958    71795.511            4    1.3111821    1.3111821 
  869000    868970.75     -1596395    298.42731    1379.5551     2.862218    71646.961            4    1.3111821    1.3111821 
  870000    869970.75   -1596534.6    299.54875    913.54971    2.8577819    71758.176            4    1.3111821    1.3111821 
  871000    870970.75   -1596324.2     302.3852    109.43179    2.8568238    71782.243            4    1.3111821    1.3111821 
  872000    871970.75   -1596269.4    298.33197    1324.8694    2.8616523    71661.124            4    1.3111821    1.3111821 
  873000    872970.75   -1596814.2    299.33396    979.34109    2.8575168    71764.834            4    1.3111821    1.3111821 
  874000    873970.75   -1596687.5    303.95326     1018.066    2.8558695    71806.228            4    1.3111821    1.3111821 
  875000    874970.75   -1596510.2    303.74486    -292.4214    2.8542937     71845.87            4    1.3111821    1.3111821 
  876000    875970.75   -1596527.1    296.97343   -563.51407      2.85353    71865.099            4    1.3111821    1.3111821 
  877000    876970.75   -1596616.6    298.05877    87.725574    2.8563427    71794.332            4    1.3108626    1.3108626 
  878000    877970.75   -1596114.6    303.00046    437.40447    2.8579831    71753.125            4    1.3111821    1.3111821 
  879000    878970.75   -1596657.6    297.51924    85.188323    2.8562489    71796.691            4    1.3111821    1.3111821 
  880000    879970.75   -1596755.7    300.77656   -1719.8899    2.8499134    71956.298            4    1.3111821    1.3111821 
  881000    880970.75   -1596643.6    294.39216    376.59316    2.8565003    71790.372            4    1.3111821    1.3111821 
  882000    881970.75   -1596597.9     300.1188    31.192657      2.85788    71755.714            4    1.3111821    1.3111821 
  883000    882970.75     -1596566    295.63118   -794.68548    2.8536784    71861.361            4    1.3111821    1.3111821 
  884000    883970.75   -1596603.6    297.84905   -745.39411     2.859119    71724.618            4    1.3111821    1.3111821 
  885000    884970.75   -1596431.1    300.48286    620.08513    2.8567611    71783.818            4    1.3111821    1.3111821 
  886000    885970.75   -1597233.6    296.44301    -41.32961    2.8539479    71854.576            4    1.3111821    1.3111821 
  887000    886970.75     -1596651     301.0017    39.714254    2.8527707    71884.227            4    1.3111821    1.3111821 
  888000    887970.75   -1596378.9    297.71667   -1529.0601    2.8540299    71852.511            4    1.3111821    1.3111821 
  889000    888970.75   -1596467.4    300.69016   -27.098219     2.857356    71768.873            4    1.3111821    1.3111821 
  890000    889970.75   -1597070.9    299.72763   -1680.9255    2.8520396    71902.655            4    1.3111821    1.3111821 
  891000    890970.75   -1596438.1    301.83163   -399.29556     2.856325    71794.778            4    1.3108626    1.3108626 
  892000    891970.75   -1596717.9    299.06448   -315.50852    2.8550706     71826.32            4    1.3111821    1.3111821 
  893000    892970.75   -1596019.5    305.36229    131.49541    2.8564902    71790.625            4    1.3111821    1.3111821 
  894000    893970.75   -1596382.9    301.04779   -58.896016    2.8568434     71781.75            4    1.3111821    1.3111821 
  895000    894970.75   -1596731.4    303.53257   -2677.8102    2.8497847    71959.547            4    1.3111821    1.3111821 
  896000    895970.75   -1596617.6    299.71793   -94.139763    2.8551855    71823.431            4    1.3105431    1.3105431 
  897000    896970.75   -1596743.8     298.2643   -236.62053    2.8555906    71813.241            4    1.3111821    1.3111821 
  898000    897970.75   -1597042.7    295.42497    138.97536    2.8546547    71836.787            4    1.3111821    1.3111821 
  899000    898970.75   -1596790.8    305.30083    731.62149    2.8584459    71741.506            4    1.3111821    1.3111821 
  900000    899970.75   -1596373.1    300.15847   -269.27445    2.8580267    71752.031            4    1.3108626    1.3108626 
  901000    900970.75   -1596843.9    297.97837   -79.506823    2.8561029     71800.36            4    1.3111821    1.3111821 
  902000    901970.75   -1596475.8    300.18876   -95.803977    2.8581082    71749.984            4    1.3111821    1.3111821 
  903000    902970.75   -1596167.8    293.55908    1480.9159    2.8605238    71689.395            4    1.3105431    1.3105431 
  904000    903970.75   -1596512.5    294.79341    207.48017    2.8572768    71770.861            4    1.3111821    1.3111821 
  905000    904970.75   -1596476.1    300.79144   -1346.7704     2.850696    71936.544            4    1.3111821    1.3111821 
  906000    905970.75   -1596435.7    303.55924   -492.43359     2.857975    71753.329            4    1.3111821    1.3111821 
  907000    906970.75   -1596733.5    302.76553    -1758.627    2.8495165    71966.321            4    1.3111821    1.3111821 
  908000    907970.75   -1596602.3    297.56948   -1452.1374    2.8576401    71761.737            4    1.3111821    1.3111821 
  909000    908970.75   -1596414.6    293.77738    339.27295    2.8581076    71749.998            4    1.3108626    1.3108626 
  910000    909970.75   -1596540.5    303.02669    448.76731     2.855177    71823.643            4    1.3111821    1.3111821 
  911000    910970.75   -1596565.3    303.88301    411.16854    2.8563679    71793.699            4    1.3111821    1.3111821 
  912000    911970.75   -1596833.3    294.64691   -1003.4557    2.8552797    71821.061            4    1.3111821    1.3111821 
  913000    912970.75   -1596251.7    294.27806    856.84118     2.857056    71776.408            4    1.3111821    1.3111821 
  914000    913970.75   -1596568.8    304.01109    60.365754    2.8585223    71739.589            4    1.3111821    1.3111821 
  915000    914970.75   -1596382.5    297.56101   -267.45601    2.8553986    71818.071            4    1.3111821    1.3111821 
  916000    915970.75   -1596382.2    293.66784    961.48448     2.861203    71672.376            4    1.3111821    1.3111821 
  917000    916970.75   -1596390.7    296.18197   -392.95866    2.8581144    71749.827            4    1.3108626    1.3108626 
  918000    917970.75   -1596248.3    298.59748   -92.544736    2.8618805    71655.409            4    1.3111821    1.3111821 
  919000    918970.75   -1596719.9     302.8471   -331.62712    2.8540212    71852.731            4    1.3111821    1.3111821 
  920000    919970.75   -1596416.6    302.78948    562.57779    2.8605259    71689.342            4    1.3111821    1.3111821 
Loop time of 1438.49 on 8 procs for 60000 steps with 5720 atoms

Performance: 3.604 ns/day, 6.660 hours/ns, 41.710 timesteps/s
99.9% CPU use with 8 MPI tasks x 1 OpenMP threads

MPI task timing breakdown:
Section |  min time  |  avg time  |  max time  |%varavg| %total
---------------------------------------------------------------
Pair    | 728.05     | 746.44     | 761.09     |  43.2 | 51.89
Kspace  | 372.38     | 386.91     | 405.08     |  60.1 | 26.90
Neigh   | 3.6875     | 3.762      | 3.8321     |   2.6 |  0.26
Comm    | 11.666     | 11.853     | 12.103     |   4.5 |  0.82
Output  | 2.1372     | 2.1373     | 2.1379     |   0.0 |  0.15
Modify  | 235.16     | 254.16     | 285.52     | 108.2 | 17.67
Other   |            | 33.24      |            |       |  2.31

Nlocal:    715 ave 732 max 699 min
Histogram: 1 0 1 1 0 3 1 0 0 1
Nghost:    6446.38 ave 6470 max 6416 min
Histogram: 1 0 0 1 0 4 0 0 0 2
Neighs:    206204 ave 211959 max 199651 min
Histogram: 1 0 1 0 1 2 1 0 0 2
FullNghs:  412407 ave 425210 max 400367 min
Histogram: 1 0 1 1 2 1 0 1 0 1

Total # of neighbors = 3299256
Ave neighs/atom = 576.793
Neighbor list builds = 623
Dangerous builds = 0
unfix           1


# statistical average 300K NVE
dump           2 all custom 1000 md.lammpstrj id type x y z
fix            1 all nve

run            10000
PPPM initialization ...
WARNING: Using 12-bit tables for long-range coulomb (../kspace.cpp:321)
  G vector (1/distance) = 0.327954
  grid = 50 50 50
  stencil order = 5
  estimated absolute RMS force accuracy = 0.00370676
  estimated relative force accuracy = 1.11628e-05
  using double precision FFTs
  3d grid and FFT values/proc = 32768 17500
WARNING: More than one compute coord/atom (../compute_coord_atom.cpp:151)
WARNING: More than one compute coord/atom (../compute_coord_atom.cpp:151)
Per MPI rank memory allocation (min/avg/max) = 22.07 | 23.94 | 28.47 Mbytes
Step Time TotEng Temp Press Density Volume c_P c_O c_OO 
  920000    919970.75   -1596416.6    302.78948     562.5777    2.8605259    71689.342            4    1.3111821    1.3111821 
  921000    920970.75   -1596398.9    300.05096    648.86856    2.8605259    71689.342            4    1.3111821    1.3111821 
  922000    921970.75   -1596388.5    299.10828   -21.686073    2.8605259    71689.342            4    1.3108626    1.3108626 
  923000    922970.75   -1596906.9    298.14771    1397.1128    2.8605259    71689.342            4    1.3111821    1.3111821 
  924000    923970.75   -1596569.8    300.45499    798.31132    2.8605259    71689.342            4    1.3111821    1.3111821 
  925000    924970.75     -1596122    301.36843    403.30367    2.8605259    71689.342            4    1.3111821    1.3111821 
  926000    925970.75   -1596606.3    303.16148    873.89702    2.8605259    71689.342            4    1.3111821    1.3111821 
  927000    926970.75   -1596179.1    296.81009    1333.5943    2.8605259    71689.342            4    1.3111821    1.3111821 
  928000    927970.75   -1596461.3    301.89037    2127.3129    2.8605259    71689.342            4    1.3111821    1.3111821 
  929000    928970.75   -1596493.4    303.34506    2150.3732    2.8605259    71689.342            4    1.3108626    1.3108626 
  930000    929970.75   -1596572.3    301.40322     398.9428    2.8605259    71689.342            4    1.3111821    1.3111821 
Loop time of 190.391 on 8 procs for 10000 steps with 5720 atoms

Performance: 4.538 ns/day, 5.289 hours/ns, 52.524 timesteps/s
99.9% CPU use with 8 MPI tasks x 1 OpenMP threads

MPI task timing breakdown:
Section |  min time  |  avg time  |  max time  |%varavg| %total
---------------------------------------------------------------
Pair    | 121.29     | 124.47     | 126.48     |  13.9 | 65.37
Kspace  | 60.25      | 62.325     | 65.433     |  19.5 | 32.74
Neigh   | 0.5934     | 0.60363    | 0.61477    |   1.0 |  0.32
Comm    | 1.9461     | 1.9962     | 2.0654     |   3.3 |  1.05
Output  | 0.62136    | 0.62139    | 0.62153    |   0.0 |  0.33
Modify  | 0.11782    | 0.13139    | 0.1425     |   2.4 |  0.07
Other   |            | 0.2482     |            |       |  0.13

Nlocal:    715 ave 729 max 702 min
Histogram: 1 1 0 1 2 1 0 0 1 1
Nghost:    6464.25 ave 6480 max 6446 min
Histogram: 2 0 0 0 2 1 0 1 0 2
Neighs:    206272 ave 212217 max 201552 min
Histogram: 2 0 1 1 2 0 0 0 0 2
FullNghs:  412544 ave 423857 max 402148 min
Histogram: 1 1 0 2 2 0 0 0 0 2

Total # of neighbors = 3300350
Ave neighs/atom = 576.984
Neighbor list builds = 99
Dangerous builds = 0
unfix          1
undump 	       2

write_data      final.dat
PPPM initialization ...
WARNING: Using 12-bit tables for long-range coulomb (../kspace.cpp:321)
  G vector (1/distance) = 0.327954
  grid = 50 50 50
  stencil order = 5
  estimated absolute RMS force accuracy = 0.00370676
  estimated relative force accuracy = 1.11628e-05
  using double precision FFTs
  3d grid and FFT values/proc = 32768 17500
WARNING: More than one compute coord/atom (../compute_coord_atom.cpp:151)
WARNING: More than one compute coord/atom (../compute_coord_atom.cpp:151)
write_restart   final.rest
PPPM initialization ...
WARNING: Using 12-bit tables for long-range coulomb (../kspace.cpp:321)
  G vector (1/distance) = 0.327954
  grid = 50 50 50
  stencil order = 5
  estimated absolute RMS force accuracy = 0.00370676
  estimated relative force accuracy = 1.11628e-05
  using double precision FFTs
  3d grid and FFT values/proc = 32768 17500
WARNING: More than one compute coord/atom (../compute_coord_atom.cpp:151)
WARNING: More than one compute coord/atom (../compute_coord_atom.cpp:151)

Total wall time: 12:56:49
l time: 6:31:50
